ITEM: TIMESTEP
1
ITEM: NUMBER OF ENTRIES
2590
ITEM: BOX BOUNDS pp pp pp
-14.500000 14.500000
-14.500000 14.500000
-98.500000 98.500000
ITEM: ENTRIES index particle1 particle2
0 1 2
1 1 21
2 2 1
3 2 3
4 2 21
5 2 22
6 3 2
7 3 4
8 3 22
9 3 23
10 4 3
11 4 5
12 4 23
13 4 24
14 5 4
15 5 6
16 5 24
17 5 25
18 6 5
19 6 7
20 6 25
21 6 26
22 7 6
23 7 8
24 7 26
25 7 152
26 8 7
27 8 9
28 8 152
29 8 153
30 9 8
31 9 10
32 9 153
33 9 154
34 10 9
35 10 11
36 10 154
37 10 155
38 11 10
39 11 12
40 11 155
41 11 156
42 12 11
43 12 13
44 12 156
45 12 157
46 13 12
47 13 14
48 13 157
49 13 158
50 14 13
51 14 15
52 14 27
53 14 158
54 15 14
55 15 16
56 15 27
57 15 28
58 16 15
59 16 17
60 16 28
61 16 29
62 17 16
63 17 18
64 17 29
65 17 30
66 18 17
67 18 19
68 18 30
69 18 31
70 19 18
71 19 20
72 19 31
73 19 32
74 20 19
75 20 32
76 20 33
77 21 1
78 21 2
79 21 22
80 21 34
81 21 35
82 22 2
83 22 3
84 22 21
85 22 23
86 22 35
87 22 36
88 23 3
89 23 4
90 23 22
91 23 24
92 23 36
93 23 37
94 24 4
95 24 5
96 24 23
97 24 25
98 24 37
99 24 38
100 25 5
101 25 6
102 25 24
103 25 26
104 25 38
105 25 159
106 26 6
107 26 7
108 26 25
109 26 152
110 26 159
111 26 160
112 27 14
113 27 15
114 27 28
115 27 158
116 27 167
117 27 168
118 28 15
119 28 16
120 28 27
121 28 29
122 28 39
123 28 168
124 29 16
125 29 17
126 29 28
127 29 30
128 29 39
129 29 40
130 30 17
131 30 18
132 30 29
133 30 31
134 30 40
135 30 41
136 31 18
137 31 19
138 31 30
139 31 32
140 31 41
141 31 42
142 32 19
143 32 20
144 32 31
145 32 33
146 32 42
147 32 43
148 33 20
149 33 32
150 33 43
151 34 21
152 34 35
153 34 44
154 35 21
155 35 22
156 35 34
157 35 36
158 35 44
159 35 45
160 36 22
161 36 23
162 36 35
163 36 37
164 36 45
165 36 46
166 37 23
167 37 24
168 37 36
169 37 38
170 37 46
171 37 47
172 38 24
173 38 25
174 38 37
175 38 47
176 38 159
177 38 169
178 39 28
179 39 29
180 39 40
181 39 168
182 39 179
183 39 180
184 40 29
185 40 30
186 40 39
187 40 41
188 40 48
189 40 180
190 41 30
191 41 31
192 41 40
193 41 42
194 41 48
195 41 49
196 42 31
197 42 32
198 42 41
199 42 43
200 42 49
201 42 50
202 43 32
203 43 33
204 43 42
205 43 50
206 43 51
207 44 34
208 44 35
209 44 45
210 44 52
211 44 53
212 45 35
213 45 36
214 45 44
215 45 46
216 45 53
217 45 54
218 46 36
219 46 37
220 46 45
221 46 47
222 46 54
223 46 181
224 47 37
225 47 38
226 47 46
227 47 169
228 47 181
229 47 182
230 48 40
231 48 41
232 48 49
233 48 55
234 48 180
235 48 194
236 49 41
237 49 42
238 49 48
239 49 50
240 49 55
241 49 56
242 50 42
243 50 43
244 50 49
245 50 51
246 50 56
247 50 57
248 51 43
249 51 50
250 51 57
251 52 44
252 52 53
253 52 58
254 53 44
255 53 45
256 53 52
257 53 54
258 53 58
259 53 59
260 54 45
261 54 46
262 54 53
263 54 59
264 54 181
265 54 195
266 55 48
267 55 49
268 55 56
269 55 60
270 55 194
271 55 209
272 56 49
273 56 50
274 56 55
275 56 57
276 56 60
277 56 61
278 57 50
279 57 51
280 57 56
281 57 61
282 57 62
283 58 52
284 58 53
285 58 59
286 58 63
287 58 64
288 59 53
289 59 54
290 59 58
291 59 64
292 59 195
293 59 210
294 60 55
295 60 56
296 60 61
297 60 65
298 60 209
299 60 225
300 61 56
301 61 57
302 61 60
303 61 62
304 61 65
305 61 66
306 62 57
307 62 61
308 62 66
309 63 58
310 63 64
311 63 67
312 64 58
313 64 59
314 64 63
315 64 67
316 64 210
317 64 226
318 65 60
319 65 61
320 65 66
321 65 68
322 65 225
323 65 242
324 66 61
325 66 62
326 66 65
327 66 68
328 66 69
329 67 63
330 67 64
331 67 70
332 67 226
333 67 243
334 68 65
335 68 66
336 68 69
337 68 71
338 68 242
339 68 260
340 69 66
341 69 68
342 69 71
343 70 67
344 70 72
345 70 243
346 71 68
347 71 69
348 71 73
349 71 260
350 71 278
351 72 70
352 72 74
353 72 243
354 72 261
355 72 279
356 73 71
357 73 75
358 73 278
359 74 72
360 74 279
361 74 297
362 75 73
363 75 76
364 75 278
365 75 296
366 75 315
367 76 75
368 76 78
369 76 315
370 77 79
371 77 297
372 77 316
373 78 76
374 78 80
375 78 315
376 78 333
377 78 351
378 79 77
379 79 81
380 79 316
381 79 334
382 79 352
383 80 78
384 80 82
385 80 351
386 81 79
387 81 83
388 81 352
389 82 80
390 82 84
391 82 85
392 82 351
393 82 369
394 83 81
395 83 86
396 83 87
397 83 352
398 83 370
399 84 82
400 84 85
401 84 88
402 84 89
403 84 369
404 84 386
405 85 82
406 85 84
407 85 89
408 86 83
409 86 87
410 86 90
411 87 83
412 87 86
413 87 90
414 87 91
415 87 370
416 87 387
417 88 84
418 88 89
419 88 92
420 88 93
421 88 386
422 88 402
423 89 84
424 89 85
425 89 88
426 89 93
427 89 94
428 90 86
429 90 87
430 90 91
431 90 95
432 90 96
433 91 87
434 91 90
435 91 96
436 91 97
437 91 387
438 91 403
439 92 88
440 92 93
441 92 98
442 92 99
443 92 402
444 92 417
445 93 88
446 93 89
447 93 92
448 93 94
449 93 99
450 93 100
451 94 89
452 94 93
453 94 100
454 95 90
455 95 96
456 95 101
457 96 90
458 96 91
459 96 95
460 96 97
461 96 101
462 96 102
463 97 91
464 97 96
465 97 102
466 97 103
467 97 403
468 97 418
469 98 92
470 98 99
471 98 105
472 98 106
473 98 417
474 98 431
475 99 92
476 99 93
477 99 98
478 99 100
479 99 106
480 99 107
481 100 93
482 100 94
483 100 99
484 100 107
485 100 108
486 101 95
487 101 96
488 101 102
489 101 109
490 101 110
491 102 96
492 102 97
493 102 101
494 102 103
495 102 110
496 102 111
497 103 97
498 103 102
499 103 104
500 103 111
501 103 112
502 103 418
503 104 103
504 104 112
505 104 113
506 104 418
507 104 419
508 104 432
509 105 98
510 105 106
511 105 115
512 105 116
513 105 431
514 105 443
515 106 98
516 106 99
517 106 105
518 106 107
519 106 116
520 106 117
521 107 99
522 107 100
523 107 106
524 107 108
525 107 117
526 107 118
527 108 100
528 108 107
529 108 118
530 109 101
531 109 110
532 109 119
533 110 101
534 110 102
535 110 109
536 110 111
537 110 119
538 110 120
539 111 102
540 111 103
541 111 110
542 111 112
543 111 120
544 111 121
545 112 103
546 112 104
547 112 111
548 112 113
549 112 121
550 112 122
551 113 104
552 113 112
553 113 122
554 113 123
555 113 432
556 113 444
557 114 115
558 114 126
559 114 127
560 114 442
561 114 443
562 114 453
563 115 105
564 115 114
565 115 116
566 115 127
567 115 128
568 115 443
569 116 105
570 116 106
571 116 115
572 116 117
573 116 128
574 116 129
575 117 106
576 117 107
577 117 116
578 117 118
579 117 129
580 117 130
581 118 107
582 118 108
583 118 117
584 118 130
585 118 131
586 119 109
587 119 110
588 119 120
589 119 132
590 119 133
591 120 110
592 120 111
593 120 119
594 120 121
595 120 133
596 120 134
597 121 111
598 121 112
599 121 120
600 121 122
601 121 134
602 121 135
603 122 112
604 122 113
605 122 121
606 122 123
607 122 135
608 122 136
609 123 113
610 123 122
611 123 124
612 123 136
613 123 137
614 123 444
615 124 123
616 124 137
617 124 138
618 124 444
619 124 445
620 124 454
621 125 126
622 125 145
623 125 146
624 125 452
625 125 453
626 125 460
627 126 114
628 126 125
629 126 127
630 126 146
631 126 147
632 126 453
633 127 114
634 127 115
635 127 126
636 127 128
637 127 147
638 127 148
639 128 115
640 128 116
641 128 127
642 128 129
643 128 148
644 128 149
645 129 116
646 129 117
647 129 128
648 129 130
649 129 149
650 129 150
651 130 117
652 130 118
653 130 129
654 130 131
655 130 150
656 130 151
657 131 118
658 131 130
659 131 151
660 132 119
661 132 133
662 133 119
663 133 120
664 133 132
665 133 134
666 134 120
667 134 121
668 134 133
669 134 135
670 135 121
671 135 122
672 135 134
673 135 136
674 136 122
675 136 123
676 136 135
677 136 137
678 137 123
679 137 124
680 137 136
681 137 138
682 138 124
683 138 137
684 138 139
685 138 454
686 139 138
687 139 140
688 139 454
689 139 455
690 140 139
691 140 141
692 140 455
693 140 456
694 141 140
695 141 142
696 141 456
697 141 457
698 142 141
699 142 143
700 142 457
701 142 458
702 143 142
703 143 144
704 143 458
705 143 459
706 144 143
707 144 145
708 144 459
709 144 460
710 145 125
711 145 144
712 145 146
713 145 460
714 146 125
715 146 126
716 146 145
717 146 147
718 147 126
719 147 127
720 147 146
721 147 148
722 148 127
723 148 128
724 148 147
725 148 149
726 149 128
727 149 129
728 149 148
729 149 150
730 150 129
731 150 130
732 150 149
733 150 151
734 151 130
735 151 131
736 151 150
737 152 7
738 152 8
739 152 26
740 152 153
741 152 160
742 152 161
743 153 8
744 153 9
745 153 152
746 153 154
747 153 161
748 153 162
749 154 9
750 154 10
751 154 153
752 154 155
753 154 162
754 154 163
755 155 10
756 155 11
757 155 154
758 155 156
759 155 163
760 155 164
761 156 11
762 156 12
763 156 155
764 156 157
765 156 164
766 156 165
767 157 12
768 157 13
769 157 156
770 157 158
771 157 165
772 157 166
773 158 13
774 158 14
775 158 27
776 158 157
777 158 166
778 158 167
779 159 25
780 159 26
781 159 38
782 159 160
783 159 169
784 159 170
785 160 26
786 160 152
787 160 159
788 160 161
789 160 170
790 160 171
791 161 152
792 161 153
793 161 160
794 161 162
795 161 171
796 161 172
797 162 153
798 162 154
799 162 161
800 162 163
801 162 172
802 162 173
803 163 154
804 163 155
805 163 162
806 163 164
807 163 173
808 163 174
809 164 155
810 164 156
811 164 163
812 164 165
813 164 174
814 164 175
815 165 156
816 165 157
817 165 164
818 165 166
819 165 175
820 165 176
821 166 157
822 166 158
823 166 165
824 166 167
825 166 176
826 166 177
827 167 27
828 167 158
829 167 166
830 167 168
831 167 177
832 167 178
833 168 27
834 168 28
835 168 39
836 168 167
837 168 178
838 168 179
839 169 38
840 169 47
841 169 159
842 169 170
843 169 182
844 169 183
845 170 159
846 170 160
847 170 169
848 170 171
849 170 183
850 170 184
851 171 160
852 171 161
853 171 170
854 171 172
855 171 184
856 171 185
857 172 161
858 172 162
859 172 171
860 172 173
861 172 185
862 172 186
863 173 162
864 173 163
865 173 172
866 173 174
867 173 186
868 173 187
869 174 163
870 174 164
871 174 173
872 174 175
873 174 187
874 174 188
875 175 164
876 175 165
877 175 174
878 175 176
879 175 188
880 175 189
881 176 165
882 176 166
883 176 175
884 176 177
885 176 189
886 176 190
887 177 166
888 177 167
889 177 176
890 177 178
891 177 190
892 177 191
893 178 167
894 178 168
895 178 177
896 178 179
897 178 191
898 178 192
899 179 39
900 179 168
901 179 178
902 179 180
903 179 192
904 179 193
905 180 39
906 180 40
907 180 48
908 180 179
909 180 193
910 180 194
911 181 46
912 181 47
913 181 54
914 181 182
915 181 195
916 181 196
917 182 47
918 182 169
919 182 181
920 182 183
921 182 196
922 182 197
923 183 169
924 183 170
925 183 182
926 183 184
927 183 197
928 183 198
929 184 170
930 184 171
931 184 183
932 184 185
933 184 198
934 184 199
935 185 171
936 185 172
937 185 184
938 185 186
939 185 199
940 185 200
941 186 172
942 186 173
943 186 185
944 186 187
945 186 200
946 186 201
947 187 173
948 187 174
949 187 186
950 187 188
951 187 201
952 187 202
953 188 174
954 188 175
955 188 187
956 188 189
957 188 202
958 188 203
959 189 175
960 189 176
961 189 188
962 189 190
963 189 203
964 189 204
965 190 176
966 190 177
967 190 189
968 190 191
969 190 204
970 190 205
971 191 177
972 191 178
973 191 190
974 191 192
975 191 205
976 191 206
977 192 178
978 192 179
979 192 191
980 192 193
981 192 206
982 192 207
983 193 179
984 193 180
985 193 192
986 193 194
987 193 207
988 193 208
989 194 48
990 194 55
991 194 180
992 194 193
993 194 208
994 194 209
995 195 54
996 195 59
997 195 181
998 195 196
999 195 210
1000 195 211
1001 196 181
1002 196 182
1003 196 195
1004 196 197
1005 196 211
1006 196 212
1007 197 182
1008 197 183
1009 197 196
1010 197 198
1011 197 212
1012 197 213
1013 198 183
1014 198 184
1015 198 197
1016 198 199
1017 198 213
1018 198 214
1019 199 184
1020 199 185
1021 199 198
1022 199 200
1023 199 214
1024 199 215
1025 200 185
1026 200 186
1027 200 199
1028 200 201
1029 200 215
1030 200 216
1031 201 186
1032 201 187
1033 201 200
1034 201 202
1035 201 216
1036 201 217
1037 202 187
1038 202 188
1039 202 201
1040 202 203
1041 202 217
1042 202 218
1043 203 188
1044 203 189
1045 203 202
1046 203 204
1047 203 218
1048 203 219
1049 204 189
1050 204 190
1051 204 203
1052 204 205
1053 204 219
1054 204 220
1055 205 190
1056 205 191
1057 205 204
1058 205 206
1059 205 220
1060 205 221
1061 206 191
1062 206 192
1063 206 205
1064 206 207
1065 206 221
1066 206 222
1067 207 192
1068 207 193
1069 207 206
1070 207 208
1071 207 222
1072 207 223
1073 208 193
1074 208 194
1075 208 207
1076 208 209
1077 208 223
1078 208 224
1079 209 55
1080 209 60
1081 209 194
1082 209 208
1083 209 224
1084 209 225
1085 210 59
1086 210 64
1087 210 195
1088 210 211
1089 210 226
1090 210 227
1091 211 195
1092 211 196
1093 211 210
1094 211 212
1095 211 227
1096 211 228
1097 212 196
1098 212 197
1099 212 211
1100 212 213
1101 212 228
1102 212 229
1103 213 197
1104 213 198
1105 213 212
1106 213 214
1107 213 229
1108 213 230
1109 214 198
1110 214 199
1111 214 213
1112 214 215
1113 214 230
1114 214 231
1115 215 199
1116 215 200
1117 215 214
1118 215 216
1119 215 231
1120 215 232
1121 216 200
1122 216 201
1123 216 215
1124 216 217
1125 216 232
1126 216 233
1127 217 201
1128 217 202
1129 217 216
1130 217 218
1131 217 233
1132 217 234
1133 218 202
1134 218 203
1135 218 217
1136 218 219
1137 218 234
1138 218 235
1139 219 203
1140 219 204
1141 219 218
1142 219 220
1143 219 235
1144 219 236
1145 220 204
1146 220 205
1147 220 219
1148 220 221
1149 220 236
1150 220 237
1151 221 205
1152 221 206
1153 221 220
1154 221 222
1155 221 237
1156 221 238
1157 222 206
1158 222 207
1159 222 221
1160 222 223
1161 222 238
1162 222 239
1163 223 207
1164 223 208
1165 223 222
1166 223 224
1167 223 239
1168 223 240
1169 224 208
1170 224 209
1171 224 223
1172 224 225
1173 224 240
1174 224 241
1175 225 60
1176 225 65
1177 225 209
1178 225 224
1179 225 241
1180 225 242
1181 226 64
1182 226 67
1183 226 210
1184 226 227
1185 226 243
1186 226 244
1187 227 210
1188 227 211
1189 227 226
1190 227 228
1191 227 244
1192 227 245
1193 228 211
1194 228 212
1195 228 227
1196 228 229
1197 228 245
1198 228 246
1199 229 212
1200 229 213
1201 229 228
1202 229 230
1203 229 246
1204 229 247
1205 230 213
1206 230 214
1207 230 229
1208 230 231
1209 230 247
1210 230 248
1211 231 214
1212 231 215
1213 231 230
1214 231 232
1215 231 248
1216 231 249
1217 232 215
1218 232 216
1219 232 231
1220 232 233
1221 232 249
1222 232 250
1223 233 216
1224 233 217
1225 233 232
1226 233 234
1227 233 250
1228 233 251
1229 234 217
1230 234 218
1231 234 233
1232 234 235
1233 234 251
1234 234 252
1235 235 218
1236 235 219
1237 235 234
1238 235 236
1239 235 252
1240 235 253
1241 236 219
1242 236 220
1243 236 235
1244 236 237
1245 236 253
1246 236 254
1247 237 220
1248 237 221
1249 237 236
1250 237 238
1251 237 254
1252 237 255
1253 238 221
1254 238 222
1255 238 237
1256 238 239
1257 238 255
1258 238 256
1259 239 222
1260 239 223
1261 239 238
1262 239 240
1263 239 256
1264 239 257
1265 240 223
1266 240 224
1267 240 239
1268 240 241
1269 240 257
1270 240 258
1271 241 224
1272 241 225
1273 241 240
1274 241 242
1275 241 258
1276 241 259
1277 242 65
1278 242 68
1279 242 225
1280 242 241
1281 242 259
1282 242 260
1283 243 67
1284 243 70
1285 243 72
1286 243 226
1287 243 244
1288 243 261
1289 244 226
1290 244 227
1291 244 243
1292 244 245
1293 244 261
1294 244 262
1295 245 227
1296 245 228
1297 245 244
1298 245 246
1299 245 262
1300 245 263
1301 246 228
1302 246 229
1303 246 245
1304 246 247
1305 246 263
1306 246 264
1307 247 229
1308 247 230
1309 247 246
1310 247 248
1311 247 264
1312 247 265
1313 248 230
1314 248 231
1315 248 247
1316 248 249
1317 248 265
1318 248 266
1319 249 231
1320 249 232
1321 249 248
1322 249 250
1323 249 266
1324 249 267
1325 250 232
1326 250 233
1327 250 249
1328 250 251
1329 250 267
1330 250 268
1331 251 233
1332 251 234
1333 251 250
1334 251 252
1335 251 268
1336 251 269
1337 252 234
1338 252 235
1339 252 251
1340 252 253
1341 252 269
1342 252 270
1343 253 235
1344 253 236
1345 253 252
1346 253 254
1347 253 270
1348 253 271
1349 254 236
1350 254 237
1351 254 253
1352 254 255
1353 254 271
1354 254 272
1355 255 237
1356 255 238
1357 255 254
1358 255 256
1359 255 272
1360 255 273
1361 256 238
1362 256 239
1363 256 255
1364 256 257
1365 256 273
1366 256 274
1367 257 239
1368 257 240
1369 257 256
1370 257 258
1371 257 274
1372 257 275
1373 258 240
1374 258 241
1375 258 257
1376 258 259
1377 258 275
1378 258 276
1379 259 241
1380 259 242
1381 259 258
1382 259 260
1383 259 276
1384 259 277
1385 260 68
1386 260 71
1387 260 242
1388 260 259
1389 260 277
1390 260 278
1391 261 72
1392 261 243
1393 261 244
1394 261 262
1395 261 279
1396 261 280
1397 262 244
1398 262 245
1399 262 261
1400 262 263
1401 262 280
1402 262 281
1403 263 245
1404 263 246
1405 263 262
1406 263 264
1407 263 281
1408 263 282
1409 264 246
1410 264 247
1411 264 263
1412 264 265
1413 264 282
1414 264 283
1415 265 247
1416 265 248
1417 265 264
1418 265 266
1419 265 283
1420 265 284
1421 266 248
1422 266 249
1423 266 265
1424 266 267
1425 266 284
1426 266 285
1427 267 249
1428 267 250
1429 267 266
1430 267 268
1431 267 285
1432 267 286
1433 268 250
1434 268 251
1435 268 267
1436 268 269
1437 268 286
1438 268 287
1439 269 251
1440 269 252
1441 269 268
1442 269 270
1443 269 287
1444 269 288
1445 270 252
1446 270 253
1447 270 269
1448 270 271
1449 270 288
1450 270 289
1451 271 253
1452 271 254
1453 271 270
1454 271 272
1455 271 289
1456 271 290
1457 272 254
1458 272 255
1459 272 271
1460 272 273
1461 272 290
1462 272 291
1463 273 255
1464 273 256
1465 273 272
1466 273 274
1467 273 291
1468 273 292
1469 274 256
1470 274 257
1471 274 273
1472 274 275
1473 274 292
1474 274 293
1475 275 257
1476 275 258
1477 275 274
1478 275 276
1479 275 293
1480 275 294
1481 276 258
1482 276 259
1483 276 275
1484 276 277
1485 276 294
1486 276 295
1487 277 259
1488 277 260
1489 277 276
1490 277 278
1491 277 295
1492 277 296
1493 278 71
1494 278 73
1495 278 75
1496 278 260
1497 278 277
1498 278 296
1499 279 72
1500 279 74
1501 279 261
1502 279 280
1503 279 297
1504 279 298
1505 280 261
1506 280 262
1507 280 279
1508 280 281
1509 280 298
1510 280 299
1511 281 262
1512 281 263
1513 281 280
1514 281 282
1515 281 299
1516 281 300
1517 282 263
1518 282 264
1519 282 281
1520 282 283
1521 282 300
1522 282 301
1523 283 264
1524 283 265
1525 283 282
1526 283 284
1527 283 301
1528 283 302
1529 284 265
1530 284 266
1531 284 283
1532 284 285
1533 284 302
1534 284 303
1535 285 266
1536 285 267
1537 285 284
1538 285 286
1539 285 303
1540 285 304
1541 286 267
1542 286 268
1543 286 285
1544 286 287
1545 286 304
1546 286 305
1547 287 268
1548 287 269
1549 287 286
1550 287 288
1551 287 305
1552 287 306
1553 288 269
1554 288 270
1555 288 287
1556 288 289
1557 288 306
1558 288 307
1559 289 270
1560 289 271
1561 289 288
1562 289 290
1563 289 307
1564 289 308
1565 290 271
1566 290 272
1567 290 289
1568 290 291
1569 290 308
1570 290 309
1571 291 272
1572 291 273
1573 291 290
1574 291 292
1575 291 309
1576 291 310
1577 292 273
1578 292 274
1579 292 291
1580 292 293
1581 292 310
1582 292 311
1583 293 274
1584 293 275
1585 293 292
1586 293 294
1587 293 311
1588 293 312
1589 294 275
1590 294 276
1591 294 293
1592 294 295
1593 294 312
1594 294 313
1595 295 276
1596 295 277
1597 295 294
1598 295 296
1599 295 313
1600 295 314
1601 296 75
1602 296 277
1603 296 278
1604 296 295
1605 296 314
1606 296 315
1607 297 74
1608 297 77
1609 297 279
1610 297 298
1611 297 316
1612 298 279
1613 298 280
1614 298 297
1615 298 299
1616 298 316
1617 298 317
1618 299 280
1619 299 281
1620 299 298
1621 299 300
1622 299 317
1623 299 318
1624 300 281
1625 300 282
1626 300 299
1627 300 301
1628 300 318
1629 300 319
1630 301 282
1631 301 283
1632 301 300
1633 301 302
1634 301 319
1635 301 320
1636 302 283
1637 302 284
1638 302 301
1639 302 303
1640 302 320
1641 302 321
1642 303 284
1643 303 285
1644 303 302
1645 303 304
1646 303 321
1647 303 322
1648 304 285
1649 304 286
1650 304 303
1651 304 305
1652 304 322
1653 304 323
1654 305 286
1655 305 287
1656 305 304
1657 305 306
1658 305 323
1659 305 324
1660 306 287
1661 306 288
1662 306 305
1663 306 307
1664 306 324
1665 306 325
1666 307 288
1667 307 289
1668 307 306
1669 307 308
1670 307 325
1671 307 326
1672 308 289
1673 308 290
1674 308 307
1675 308 309
1676 308 326
1677 308 327
1678 309 290
1679 309 291
1680 309 308
1681 309 310
1682 309 327
1683 309 328
1684 310 291
1685 310 292
1686 310 309
1687 310 311
1688 310 328
1689 310 329
1690 311 292
1691 311 293
1692 311 310
1693 311 312
1694 311 329
1695 311 330
1696 312 293
1697 312 294
1698 312 311
1699 312 313
1700 312 330
1701 312 331
1702 313 294
1703 313 295
1704 313 312
1705 313 314
1706 313 331
1707 313 332
1708 314 295
1709 314 296
1710 314 313
1711 314 315
1712 314 332
1713 314 333
1714 315 75
1715 315 76
1716 315 78
1717 315 296
1718 315 314
1719 315 333
1720 316 77
1721 316 79
1722 316 297
1723 316 298
1724 316 317
1725 316 334
1726 317 298
1727 317 299
1728 317 316
1729 317 318
1730 317 334
1731 317 335
1732 318 299
1733 318 300
1734 318 317
1735 318 319
1736 318 335
1737 318 336
1738 319 300
1739 319 301
1740 319 318
1741 319 320
1742 319 336
1743 319 337
1744 320 301
1745 320 302
1746 320 319
1747 320 321
1748 320 337
1749 320 338
1750 321 302
1751 321 303
1752 321 320
1753 321 322
1754 321 338
1755 321 339
1756 322 303
1757 322 304
1758 322 321
1759 322 323
1760 322 339
1761 322 340
1762 323 304
1763 323 305
1764 323 322
1765 323 324
1766 323 340
1767 323 341
1768 324 305
1769 324 306
1770 324 323
1771 324 325
1772 324 341
1773 324 342
1774 325 306
1775 325 307
1776 325 324
1777 325 326
1778 325 342
1779 325 343
1780 326 307
1781 326 308
1782 326 325
1783 326 327
1784 326 343
1785 326 344
1786 327 308
1787 327 309
1788 327 326
1789 327 328
1790 327 344
1791 327 345
1792 328 309
1793 328 310
1794 328 327
1795 328 329
1796 328 345
1797 328 346
1798 329 310
1799 329 311
1800 329 328
1801 329 330
1802 329 346
1803 329 347
1804 330 311
1805 330 312
1806 330 329
1807 330 331
1808 330 347
1809 330 348
1810 331 312
1811 331 313
1812 331 330
1813 331 332
1814 331 348
1815 331 349
1816 332 313
1817 332 314
1818 332 331
1819 332 333
1820 332 349
1821 332 350
1822 333 78
1823 333 314
1824 333 315
1825 333 332
1826 333 350
1827 333 351
1828 334 79
1829 334 316
1830 334 317
1831 334 335
1832 334 352
1833 334 353
1834 335 317
1835 335 318
1836 335 334
1837 335 336
1838 335 353
1839 335 354
1840 336 318
1841 336 319
1842 336 335
1843 336 337
1844 336 354
1845 336 355
1846 337 319
1847 337 320
1848 337 336
1849 337 338
1850 337 355
1851 337 356
1852 338 320
1853 338 321
1854 338 337
1855 338 339
1856 338 356
1857 338 357
1858 339 321
1859 339 322
1860 339 338
1861 339 340
1862 339 357
1863 339 358
1864 340 322
1865 340 323
1866 340 339
1867 340 341
1868 340 358
1869 340 359
1870 341 323
1871 341 324
1872 341 340
1873 341 342
1874 341 359
1875 341 360
1876 342 324
1877 342 325
1878 342 341
1879 342 343
1880 342 360
1881 342 361
1882 343 325
1883 343 326
1884 343 342
1885 343 344
1886 343 361
1887 343 362
1888 344 326
1889 344 327
1890 344 343
1891 344 345
1892 344 362
1893 344 363
1894 345 327
1895 345 328
1896 345 344
1897 345 346
1898 345 363
1899 345 364
1900 346 328
1901 346 329
1902 346 345
1903 346 347
1904 346 364
1905 346 365
1906 347 329
1907 347 330
1908 347 346
1909 347 348
1910 347 365
1911 347 366
1912 348 330
1913 348 331
1914 348 347
1915 348 349
1916 348 366
1917 348 367
1918 349 331
1919 349 332
1920 349 348
1921 349 350
1922 349 367
1923 349 368
1924 350 332
1925 350 333
1926 350 349
1927 350 351
1928 350 368
1929 350 369
1930 351 78
1931 351 80
1932 351 82
1933 351 333
1934 351 350
1935 351 369
1936 352 79
1937 352 81
1938 352 83
1939 352 334
1940 352 353
1941 352 370
1942 353 334
1943 353 335
1944 353 352
1945 353 354
1946 353 370
1947 353 371
1948 354 335
1949 354 336
1950 354 353
1951 354 355
1952 354 371
1953 354 372
1954 355 336
1955 355 337
1956 355 354
1957 355 356
1958 355 372
1959 355 373
1960 356 337
1961 356 338
1962 356 355
1963 356 357
1964 356 373
1965 356 374
1966 357 338
1967 357 339
1968 357 356
1969 357 358
1970 357 374
1971 357 375
1972 358 339
1973 358 340
1974 358 357
1975 358 359
1976 358 375
1977 358 376
1978 359 340
1979 359 341
1980 359 358
1981 359 360
1982 359 376
1983 359 377
1984 360 341
1985 360 342
1986 360 359
1987 360 361
1988 360 377
1989 360 378
1990 361 342
1991 361 343
1992 361 360
1993 361 362
1994 361 378
1995 361 379
1996 362 343
1997 362 344
1998 362 361
1999 362 363
2000 362 379
2001 362 380
2002 363 344
2003 363 345
2004 363 362
2005 363 364
2006 363 380
2007 363 381
2008 364 345
2009 364 346
2010 364 363
2011 364 365
2012 364 381
2013 364 382
2014 365 346
2015 365 347
2016 365 364
2017 365 366
2018 365 382
2019 365 383
2020 366 347
2021 366 348
2022 366 365
2023 366 367
2024 366 383
2025 366 384
2026 367 348
2027 367 349
2028 367 366
2029 367 368
2030 367 384
2031 367 385
2032 368 349
2033 368 350
2034 368 367
2035 368 369
2036 368 385
2037 368 386
2038 369 82
2039 369 84
2040 369 350
2041 369 351
2042 369 368
2043 369 386
2044 370 83
2045 370 87
2046 370 352
2047 370 353
2048 370 371
2049 370 387
2050 371 353
2051 371 354
2052 371 370
2053 371 372
2054 371 387
2055 371 388
2056 372 354
2057 372 355
2058 372 371
2059 372 373
2060 372 388
2061 372 389
2062 373 355
2063 373 356
2064 373 372
2065 373 374
2066 373 389
2067 373 390
2068 374 356
2069 374 357
2070 374 373
2071 374 375
2072 374 390
2073 374 391
2074 375 357
2075 375 358
2076 375 374
2077 375 376
2078 375 391
2079 375 392
2080 376 358
2081 376 359
2082 376 375
2083 376 377
2084 376 392
2085 376 393
2086 377 359
2087 377 360
2088 377 376
2089 377 378
2090 377 393
2091 377 394
2092 378 360
2093 378 361
2094 378 377
2095 378 379
2096 378 394
2097 378 395
2098 379 361
2099 379 362
2100 379 378
2101 379 380
2102 379 395
2103 379 396
2104 380 362
2105 380 363
2106 380 379
2107 380 381
2108 380 396
2109 380 397
2110 381 363
2111 381 364
2112 381 380
2113 381 382
2114 381 397
2115 381 398
2116 382 364
2117 382 365
2118 382 381
2119 382 383
2120 382 398
2121 382 399
2122 383 365
2123 383 366
2124 383 382
2125 383 384
2126 383 399
2127 383 400
2128 384 366
2129 384 367
2130 384 383
2131 384 385
2132 384 400
2133 384 401
2134 385 367
2135 385 368
2136 385 384
2137 385 386
2138 385 401
2139 385 402
2140 386 84
2141 386 88
2142 386 368
2143 386 369
2144 386 385
2145 386 402
2146 387 87
2147 387 91
2148 387 370
2149 387 371
2150 387 388
2151 387 403
2152 388 371
2153 388 372
2154 388 387
2155 388 389
2156 388 403
2157 388 404
2158 389 372
2159 389 373
2160 389 388
2161 389 390
2162 389 404
2163 389 405
2164 390 373
2165 390 374
2166 390 389
2167 390 391
2168 390 405
2169 390 406
2170 391 374
2171 391 375
2172 391 390
2173 391 392
2174 391 406
2175 391 407
2176 392 375
2177 392 376
2178 392 391
2179 392 393
2180 392 407
2181 392 408
2182 393 376
2183 393 377
2184 393 392
2185 393 394
2186 393 408
2187 393 409
2188 394 377
2189 394 378
2190 394 393
2191 394 395
2192 394 409
2193 394 410
2194 395 378
2195 395 379
2196 395 394
2197 395 396
2198 395 410
2199 395 411
2200 396 379
2201 396 380
2202 396 395
2203 396 397
2204 396 411
2205 396 412
2206 397 380
2207 397 381
2208 397 396
2209 397 398
2210 397 412
2211 397 413
2212 398 381
2213 398 382
2214 398 397
2215 398 399
2216 398 413
2217 398 414
2218 399 382
2219 399 383
2220 399 398
2221 399 400
2222 399 414
2223 399 415
2224 400 383
2225 400 384
2226 400 399
2227 400 401
2228 400 415
2229 400 416
2230 401 384
2231 401 385
2232 401 400
2233 401 402
2234 401 416
2235 401 417
2236 402 88
2237 402 92
2238 402 385
2239 402 386
2240 402 401
2241 402 417
2242 403 91
2243 403 97
2244 403 387
2245 403 388
2246 403 404
2247 403 418
2248 404 388
2249 404 389
2250 404 403
2251 404 405
2252 404 418
2253 404 419
2254 405 389
2255 405 390
2256 405 404
2257 405 406
2258 405 419
2259 405 420
2260 406 390
2261 406 391
2262 406 405
2263 406 407
2264 406 420
2265 406 421
2266 407 391
2267 407 392
2268 407 406
2269 407 408
2270 407 421
2271 407 422
2272 408 392
2273 408 393
2274 408 407
2275 408 409
2276 408 422
2277 408 423
2278 409 393
2279 409 394
2280 409 408
2281 409 410
2282 409 423
2283 409 424
2284 410 394
2285 410 395
2286 410 409
2287 410 411
2288 410 424
2289 410 425
2290 411 395
2291 411 396
2292 411 410
2293 411 412
2294 411 425
2295 411 426
2296 412 396
2297 412 397
2298 412 411
2299 412 413
2300 412 426
2301 412 427
2302 413 397
2303 413 398
2304 413 412
2305 413 414
2306 413 427
2307 413 428
2308 414 398
2309 414 399
2310 414 413
2311 414 415
2312 414 428
2313 414 429
2314 415 399
2315 415 400
2316 415 414
2317 415 416
2318 415 429
2319 415 430
2320 416 400
2321 416 401
2322 416 415
2323 416 417
2324 416 430
2325 416 431
2326 417 92
2327 417 98
2328 417 401
2329 417 402
2330 417 416
2331 417 431
2332 418 97
2333 418 103
2334 418 104
2335 418 403
2336 418 404
2337 418 419
2338 419 104
2339 419 404
2340 419 405
2341 419 418
2342 419 420
2343 419 432
2344 420 405
2345 420 406
2346 420 419
2347 420 421
2348 420 432
2349 420 433
2350 421 406
2351 421 407
2352 421 420
2353 421 422
2354 421 433
2355 421 434
2356 422 407
2357 422 408
2358 422 421
2359 422 423
2360 422 434
2361 422 435
2362 423 408
2363 423 409
2364 423 422
2365 423 424
2366 423 435
2367 423 436
2368 424 409
2369 424 410
2370 424 423
2371 424 425
2372 424 436
2373 424 437
2374 425 410
2375 425 411
2376 425 424
2377 425 426
2378 425 437
2379 425 438
2380 426 411
2381 426 412
2382 426 425
2383 426 427
2384 426 438
2385 426 439
2386 427 412
2387 427 413
2388 427 426
2389 427 428
2390 427 439
2391 427 440
2392 428 413
2393 428 414
2394 428 427
2395 428 429
2396 428 440
2397 428 441
2398 429 414
2399 429 415
2400 429 428
2401 429 430
2402 429 441
2403 429 442
2404 430 415
2405 430 416
2406 430 429
2407 430 431
2408 430 442
2409 430 443
2410 431 98
2411 431 105
2412 431 416
2413 431 417
2414 431 430
2415 431 443
2416 432 104
2417 432 113
2418 432 419
2419 432 420
2420 432 433
2421 432 444
2422 433 420
2423 433 421
2424 433 432
2425 433 434
2426 433 444
2427 433 445
2428 434 421
2429 434 422
2430 434 433
2431 434 435
2432 434 445
2433 434 446
2434 435 422
2435 435 423
2436 435 434
2437 435 436
2438 435 446
2439 435 447
2440 436 423
2441 436 424
2442 436 435
2443 436 437
2444 436 447
2445 436 448
2446 437 424
2447 437 425
2448 437 436
2449 437 438
2450 437 448
2451 437 449
2452 438 425
2453 438 426
2454 438 437
2455 438 439
2456 438 449
2457 438 450