ITEM: TIMESTEP
1
ITEM: NUMBER OF ATOMS
461
ITEM: BOX BOUNDS pp pp pp
-14.500000 14.500000
-14.500000 14.500000
-98.500000 98.500000
ITEM: ATOMS id type x y z
1 1 -12.661199 -12.384623 -69.999564
2 1 -11.360913 -12.383929 -70.000258
3 1 -10.061051 -12.384037 -69.999676
4 1 -8.761065 -12.384582 -70.000231
5 1 -7.460506 -12.384161 -69.999672
6 1 -6.160968 -12.384605 -70.000205
7 1 -4.861182 -12.384125 -70.000408
8 1 -3.560685 -12.384418 -70.000161
9 1 -2.261351 -12.383942 -69.999961
10 1 -0.961339 -12.383969 -69.999685
11 1 0.339137 -12.384087 -70.000492
12 1 1.639330 -12.383937 -70.000164
13 1 2.939484 -12.384052 -70.000420
14 1 4.238869 -12.383787 -69.999651
15 1 5.539080 -12.384117 -70.000269
16 1 6.839358 -12.383854 -69.999958
17 1 8.138702 -12.384651 -70.000142
18 1 9.439161 -12.384531 -69.999545
19 1 10.739009 -12.383742 -70.000254
20 1 12.039297 -12.384507 -69.999667
21 1 -12.011353 -11.258187 -69.999533
22 1 -10.711248 -11.258515 -70.000197
23 1 -9.410842 -11.258264 -70.000452
24 1 -8.111005 -11.258077 -70.000134
25 1 -6.810921 -11.258767 -70.000344
26 1 -5.510988 -11.258506 -69.999711
27 1 4.889571 -11.258020 -69.999892
28 1 6.189246 -11.258719 -69.999658
29 1 7.489182 -11.257878 -69.999680
30 1 8.789229 -11.258791 -69.999820
31 1 10.088925 -11.258590 -70.000407
32 1 11.389098 -11.258806 -69.999646
33 1 12.689097 -11.258099 -70.000187
34 1 -12.661358 -10.132383 -69.999601
35 1 -11.360684 -10.132993 -69.999819
36 1 -10.061061 -10.132744 -69.999914
37 1 -8.760485 -10.132678 -69.999966
38 1 -7.460568 -10.132230 -69.999620
39 1 6.838848 -10.132412 -69.999692
40 1 8.138795 -10.132779 -70.000135
41 1 9.438969 -10.132430 -70.000263
42 1 10.739470 -10.132733 -69.999749
43 1 12.038781 -10.132487 -69.999602
44 1 -12.010375 -9.006879 -69.999730
45 1 -10.711347 -9.006811 -70.000425
46 1 -9.410850 -9.006435 -70.000189
47 1 -8.110832 -9.007019 -69.999765
48 1 8.789054 -9.006849 -70.000132
49 1 10.089320 -9.006328 -69.999667
50 1 11.388856 -9.006330 -70.000003
51 1 12.688851 -9.006896 -69.999761
52 1 -12.660372 -7.880946 -69.999741
53 1 -11.361252 -7.880867 -69.999751
54 1 -10.061163 -7.881153 -70.000413
55 1 9.438932 -7.881168 -69.999694
56 1 10.738916 -7.880910 -69.999630
57 1 12.038880 -7.880361 -70.000242
58 1 -12.010701 -6.755492 -69.999709
59 1 -10.710405 -6.755320 -70.000453
60 1 10.088882 -6.754661 -69.999506
61 1 11.389327 -6.755461 -69.999568
62 1 12.688909 -6.754917 -70.000129
63 1 -12.660802 -5.629177 -69.999814
64 1 -11.360648 -5.629278 -69.999929
65 1 10.738934 -5.628711 -70.000003
66 1 12.039060 -5.629291 -70.000096
67 1 -12.010994 -4.502851 -70.000011
68 1 11.388786 -4.503441 -70.000053
69 1 12.689292 -4.503092 -70.000086
70 1 -12.661060 -3.377476 -69.999528
71 1 12.038741 -3.377251 -69.999575
72 1 -12.010737 -2.251644 -70.000451
73 1 12.689050 -2.251746 -69.999836
74 1 -12.661337 -1.125664 -70.000390
75 1 12.039174 -1.125672 -69.999768
76 1 12.688724 0.000098 -69.999862
77 1 -12.661138 1.126195 -70.000028
78 1 12.039415 1.125815 -70.000497
79 1 -12.011369 2.251751 -69.999689
80 1 12.689329 2.251579 -70.000144
81 1 -12.660606 3.377643 -70.000228
82 1 12.039440 3.377014 -69.999725
83 1 -12.010913 4.502918 -70.000177
84 1 11.388707 4.502899 -69.999587
85 1 12.688843 4.503028 -70.000141
86 1 -12.661216 5.629304 -70.000234
87 1 -11.360924 5.628983 -70.000373
88 1 10.739237 5.628909 -70.000111
89 1 12.039485 5.628872 -70.000336
90 1 -12.010637 6.754817 -69.999886
91 1 -10.710518 6.755072 -70.000177
92 1 10.088926 6.754853 -70.000240
93 1 11.389217 6.754792 -69.999623
94 1 12.689452 6.755048 -70.000432
95 1 -12.660916 7.880826 -69.999773
96 1 -11.360651 7.881240 -70.000189
97 1 -10.060459 7.881160 -70.000284
98 1 9.438932 7.880948 -70.000206
99 1 10.738860 7.881255 -69.999771
100 1 12.039441 7.881306 -69.999599
101 1 -12.011166 9.006969 -70.000151
102 1 -10.710817 9.006241 -70.000197
103 1 -9.410425 9.006367 -69.999777
104 1 -8.111014 9.006771 -70.000417
105 1 8.788696 9.006933 -70.000109
106 1 10.088802 9.006406 -69.999537
107 1 11.389111 9.006392 -70.000138
108 1 12.688832 9.006999 -70.000219
109 1 -12.660831 10.132250 -70.000134
110 1 -11.360850 10.132233 -69.999511
111 1 -10.061251 10.132872 -70.000166
112 1 -8.760634 10.132595 -69.999593
113 1 -7.460750 10.132212 -70.000250
114 1 6.839123 10.132969 -70.000222
115 1 8.138934 10.132471 -70.000076
116 1 9.439423 10.132260 -69.999625
117 1 10.739443 10.132820 -70.000134
118 1 12.039487 10.132688 -69.999564
119 1 -12.011274 11.258408 -69.999585
120 1 -10.711358 11.258097 -69.999549
121 1 -9.411235 11.258159 -69.999972
122 1 -8.110663 11.258747 -70.000267
123 1 -6.810392 11.258336 -70.000352
124 1 -5.510413 11.258472 -70.000073
125 1 4.889142 11.258475 -70.000258
126 1 6.188776 11.258329 -69.999661
127 1 7.488649 11.258263 -70.000035
128 1 8.788670 11.258493 -70.000198
129 1 10.089289 11.258750 -69.999524
130 1 11.389265 11.258598 -69.999612
131 1 12.689516 11.258256 -70.000462
132 1 -12.661265 12.384266 -69.999696
133 1 -11.361098 12.384297 -69.999576
134 1 -10.060649 12.383980 -69.999597
135 1 -8.761245 12.384564 -69.999508
136 1 -7.461133 12.383898 -70.000018
137 1 -6.160797 12.383938 -70.000250
138 1 -4.861107 12.383849 -70.000366
139 1 -3.560778 12.384568 -70.000500
140 1 -2.261174 12.384316 -69.999782
141 1 -0.961018 12.383793 -70.000428
142 1 0.338661 12.384400 -70.000445
143 1 1.639146 12.383775 -70.000091
144 1 2.938991 12.384226 -70.000295
145 1 4.239212 12.383985 -70.000235
146 1 5.539166 12.384201 -70.000235
147 1 6.838818 12.383841 -70.000216
148 1 8.139599 12.383753 -69.999592
149 1 9.439083 12.384174 -69.999679
150 1 10.739223 12.384235 -69.999597
151 1 12.039347 12.383992 -70.000193
152 1 -4.211252 -11.258326 -70.000175
153 1 -2.911228 -11.258683 -70.000421
154 1 -1.610493 -11.257936 -70.000054
155 1 -0.311267 -11.258127 -69.999985
156 1 0.989318 -11.258760 -70.000243
157 1 2.289052 -11.258413 -69.999698
158 1 3.588860 -11.257909 -69.999627
159 1 -6.160935 -10.132082 -69.999691
160 1 -4.861116 -10.132693 -70.000487
161 1 -3.561153 -10.132154 -70.000412
162 1 -2.260528 -10.132768 -70.000371
163 1 -0.960846 -10.132402 -70.000186
164 1 0.339473 -10.132296 -69.999998
165 1 1.639137 -10.132529 -70.000005
166 1 2.939009 -10.132384 -70.000135
167 1 4.238945 -10.132142 -69.999589
168 1 5.538840 -10.132100 -70.000184
169 1 -6.810783 -9.006316 -69.999504
170 1 -5.510826 -9.006182 -70.000393
171 1 -4.211235 -9.006219 -69.999622
172 1 -2.911210 -9.007036 -69.999654
173 1 -1.611214 -9.007007 -70.000162
174 1 -0.311125 -9.007043 -70.000138
175 1 0.989531 -9.007163 -70.000311
176 1 2.289073 -9.006312 -70.000323
177 1 3.588703 -9.006991 -69.999687
178 1 4.889624 -9.006397 -70.000350
179 1 6.189515 -9.007071 -69.999801
180 1 7.488861 -9.006499 -69.999675
181 1 -8.761324 -7.881200 -69.999600
182 1 -7.460884 -7.880907 -69.999857
183 1 -6.160920 -7.880621 -70.000028
184 1 -4.861082 -7.881206 -69.999641
185 1 -3.560391 -7.880895 -69.999592
186 1 -2.260840 -7.880534 -70.000367
187 1 -0.961246 -7.880612 -70.000448
188 1 0.338936 -7.881185 -70.000303
189 1 1.639564 -7.881121 -69.999630
190 1 2.939512 -7.880967 -69.999845
191 1 4.239349 -7.880878 -70.000378
192 1 5.539180 -7.881269 -69.999991
193 1 6.839349 -7.881170 -69.999567
194 1 8.139489 -7.880592 -70.000362
195 1 -9.410850 -6.755094 -70.000286
196 1 -8.111306 -6.754662 -69.999986
197 1 -6.811239 -6.755199 -69.999960
198 1 -5.511162 -6.754578 -70.000368
199 1 -4.211035 -6.755205 -69.999626
200 1 -2.911272 -6.754602 -70.000236
201 1 -1.611273 -6.754881 -70.000171
202 1 -0.311345 -6.755373 -70.000225
203 1 0.989468 -6.754580 -70.000088
204 1 2.289331 -6.755064 -70.000240
205 1 3.589561 -6.754643 -69.999519
206 1 4.888715 -6.754973 -69.999741
207 1 6.189553 -6.754629 -69.999729
208 1 7.489013 -6.755179 -69.999624
209 1 8.789600 -6.755127 -69.999540
210 1 -10.060541 -5.629578 -69.999647
211 1 -8.760549 -5.629585 -70.000104
212 1 -7.461088 -5.628747 -70.000393
213 1 -6.161310 -5.629040 -70.000401
214 1 -4.861215 -5.628694 -69.999959
215 1 -3.560676 -5.629030 -69.999906
216 1 -2.261206 -5.629109 -70.000142
217 1 -0.961321 -5.628869 -70.000149
218 1 0.339433 -5.629464 -70.000381
219 1 1.638757 -5.629206 -70.000371
220 1 2.938759 -5.629426 -69.999563
221 1 4.238922 -5.629427 -70.000170
222 1 5.538957 -5.628986 -70.000462
223 1 6.839450 -5.629010 -70.000159
224 1 8.139343 -5.628888 -70.000001
225 1 9.439062 -5.629626 -69.999552
226 1 -10.710489 -4.503404 -69.999515
227 1 -9.410844 -4.503239 -69.999970
228 1 -8.110416 -4.503690 -69.999786
229 1 -6.810648 -4.503243 -69.999694
230 1 -5.511185 -4.503692 -70.000189
231 1 -4.210826 -4.503643 -69.999731
232 1 -2.910924 -4.503239 -70.000042
233 1 -1.611300 -4.503526 -69.999727
234 1 -0.311104 -4.503148 -70.000472
235 1 0.988918 -4.503188 -70.000114
236 1 2.289170 -4.503094 -70.000304
237 1 3.589411 -4.503726 -70.000068
238 1 4.889518 -4.503724 -70.000253
239 1 6.189257 -4.503155 -69.999840
240 1 7.488834 -4.502965 -69.999695
241 1 8.789356 -4.502925 -69.999625
242 1 10.089523 -4.503446 -69.999890
243 1 -11.361320 -3.377411 -69.999958
244 1 -10.061291 -3.377253 -69.999730
245 1 -8.761358 -3.377300 -70.000040
246 1 -7.461323 -3.377301 -69.999588
247 1 -6.160955 -3.377553 -69.999940
248 1 -4.860959 -3.377995 -69.999966
249 1 -3.561177 -3.377832 -69.999521
250 1 -2.261347 -3.377620 -70.000384
251 1 -0.961137 -3.377852 -70.000268
252 1 0.339276 -3.377224 -70.000139
253 1 1.639408 -3.377368 -69.999667
254 1 2.938730 -3.377082 -69.999779
255 1 4.239199 -3.377330 -69.999581
256 1 5.539571 -3.377519 -69.999946
257 1 6.839086 -3.377804 -69.999653
258 1 8.138846 -3.377931 -70.000333
259 1 9.439092 -3.377361 -69.999542
260 1 10.739538 -3.377657 -70.000003
261 1 -10.710807 -2.251590 -69.999744
262 1 -9.410680 -2.251910 -69.999982
263 1 -8.111164 -2.251509 -70.000299
264 1 -6.810566 -2.251834 -70.000350
265 1 -5.511148 -2.251658 -69.999596
266 1 -4.210465 -2.251984 -70.000320
267 1 -2.911019 -2.251354 -69.999858
268 1 -1.610492 -2.251336 -70.000403
269 1 -0.311121 -2.251289 -69.999795
270 1 0.989025 -2.251230 -70.000409
271 1 2.288640 -2.251643 -70.000188
272 1 3.589345 -2.251175 -69.999829
273 1 4.889379 -2.251489 -69.999640
274 1 6.188913 -2.251611 -69.999743
275 1 7.489025 -2.251583 -69.999606
276 1 8.789041 -2.252132 -70.000027
277 1 10.089430 -2.251794 -70.000150
278 1 11.389577 -2.252117 -70.000211
279 1 -11.360682 -1.125652 -69.999645
280 1 -10.061190 -1.125435 -69.999992
281 1 -8.761153 -1.125841 -70.000302
282 1 -7.461326 -1.125808 -70.000243
283 1 -6.160641 -1.126106 -70.000397
284 1 -4.861165 -1.125902 -70.000147
285 1 -3.561299 -1.126131 -69.999843
286 1 -2.260628 -1.125980 -69.999871
287 1 -0.960389 -1.125953 -70.000414
288 1 0.339628 -1.126314 -70.000477
289 1 1.639544 -1.125716 -69.999924
290 1 2.939399 -1.126296 -70.000184
291 1 4.239563 -1.126063 -69.999747
292 1 5.538881 -1.125454 -70.000042
293 1 6.838700 -1.125656 -69.999705
294 1 8.138680 -1.125615 -70.000252
295 1 9.438961 -1.125613 -70.000331
296 1 10.739619 -1.125814 -69.999818
297 1 -12.010952 -0.000129 -70.000065
298 1 -10.710937 -0.000194 -70.000259
299 1 -9.411223 0.000288 -69.999713
300 1 -8.111327 0.000491 -70.000205
301 1 -6.810527 0.000157 -70.000217
302 1 -5.510580 -0.000225 -70.000406
303 1 -4.211174 -0.000354 -70.000251
304 1 -2.911088 0.000108 -70.000428
305 1 -1.610820 -0.000467 -70.000147
306 1 -0.310800 0.000484 -69.999530
307 1 0.988883 -0.000206 -70.000417
308 1 2.289008 -0.000473 -70.000129
309 1 3.588978 0.000355 -70.000223
310 1 4.888810 -0.000365 -69.999999
311 1 6.189599 -0.000030 -70.000358
312 1 7.489409 0.000243 -69.999626
313 1 8.788933 -0.000461 -69.999551
314 1 10.088715 -0.000431 -69.999772
315 1 11.388631 0.000194 -70.000367
316 1 -11.361126 1.126124 -69.999519
317 1 -10.061315 1.125510 -69.999755
318 1 -8.760552 1.125484 -69.999808
319 1 -7.460961 1.126176 -69.999555
320 1 -6.161159 1.125549 -70.000377
321 1 -4.861202 1.125891 -70.000011
322 1 -3.560737 1.125796 -69.999895
323 1 -2.260815 1.125394 -69.999729
324 1 -0.961266 1.125992 -70.000447
325 1 0.339415 1.125809 -69.999697
326 1 1.638649 1.125928 -70.000227
327 1 2.939130 1.126286 -69.999809
328 1 4.239429 1.125717 -70.000233
329 1 5.538853 1.125509 -69.999834
330 1 6.839345 1.126271 -70.000477
331 1 8.138695 1.125432 -70.000097
332 1 9.439543 1.125909 -70.000181
333 1 10.738883 1.125443 -70.000080
334 1 -10.711065 2.251921 -69.999992
335 1 -9.410669 2.252091 -70.000252
336 1 -8.110696 2.251849 -69.999878
337 1 -6.811228 2.252015 -70.000090
338 1 -5.510981 2.251663 -70.000025
339 1 -4.210795 2.251423 -69.999965
340 1 -2.911093 2.251720 -70.000277
341 1 -1.611291 2.251439 -70.000248
342 1 -0.310378 2.251618 -70.000484
343 1 0.989227 2.251213 -70.000449
344 1 2.288699 2.252066 -69.999681
345 1 3.589438 2.252037 -70.000485
346 1 4.889188 2.251717 -69.999523
347 1 6.189387 2.251526 -69.999978
348 1 7.489160 2.252159 -69.999947
349 1 8.789203 2.251562 -70.000103
350 1 10.089357 2.251330 -69.999970
351 1 11.388688 2.251635 -69.999619
352 1 -11.360570 3.377084 -69.999787
353 1 -10.060825 3.377314 -70.000234
354 1 -8.761053 3.377081 -70.000120
355 1 -7.460665 3.377559 -70.000109
356 1 -6.160462 3.377887 -69.999737
357 1 -4.860917 3.377800 -70.000048
358 1 -3.560684 3.377986 -69.999937
359 1 -2.261200 3.377491 -69.999627
360 1 -0.960665 3.377895 -70.000429
361 1 0.338705 3.377320 -69.999728
362 1 1.639382 3.377008 -70.000413
363 1 2.938943 3.377103 -70.000219
364 1 4.239247 3.377841 -70.000178
365 1 5.539401 3.377437 -70.000139
366 1 6.839507 3.377927 -70.000384
367 1 8.138947 3.377871 -70.000393
368 1 9.439138 3.377143 -70.000496
369 1 10.738841 3.377628 -70.000328
370 1 -10.710456 4.503080 -69.999776
371 1 -9.410858 4.503004 -69.999967
372 1 -8.110988 4.503447 -70.000268
373 1 -6.810657 4.503556 -70.000308
374 1 -5.510755 4.502947 -70.000429
375 1 -4.211347 4.503713 -69.999835
376 1 -2.911305 4.503610 -69.999699
377 1 -1.610423 4.503802 -70.000065
378 1 -0.310976 4.503413 -70.000477
379 1 0.988666 4.503389 -69.999798
380 1 2.289575 4.503688 -70.000461
381 1 3.589266 4.503302 -70.000355
382 1 4.889463 4.503202 -69.999960
383 1 6.188985 4.503288 -69.999695
384 1 7.488689 4.503411 -70.000242
385 1 8.788694 4.503109 -70.000450
386 1 10.088710 4.503122 -69.999997
387 1 -10.061181 5.629163 -69.999664
388 1 -8.761276 5.629189 -70.000248
389 1 -7.460704 5.629061 -69.999679
390 1 -6.161047 5.628867 -70.000255
391 1 -4.860410 5.629581 -69.999561
392 1 -3.560374 5.629025 -70.000386
393 1 -2.260767 5.628876 -70.000033
394 1 -0.961173 5.629347 -69.999970
395 1 0.339151 5.629015 -70.000345
396 1 1.638642 5.629164 -70.000372
397 1 2.939039 5.629634 -69.999513
398 1 4.238997 5.629375 -69.999550
399 1 5.538721 5.628790 -70.000020
400 1 6.839408 5.629259 -70.000040
401 1 8.139174 5.628794 -69.999691
402 1 9.439324 5.628719 -70.000474
403 1 -9.411145 6.754571 -69.999594
404 1 -8.111231 6.755317 -70.000351
405 1 -6.810484 6.754680 -69.999634
406 1 -5.510857 6.754597 -70.000426
407 1 -4.211091 6.755434 -70.000294
408 1 -2.911113 6.755444 -70.000210
409 1 -1.610501 6.755005 -69.999975
410 1 -0.311002 6.754865 -70.000150
411 1 0.989155 6.755263 -69.999984
412 1 2.288914 6.755482 -70.000129
413 1 3.589211 6.754911 -70.000217
414 1 4.889033 6.754947 -69.999618
415 1 6.189300 6.755462 -69.999789
416 1 7.489495 6.754880 -70.000030
417 1 8.789323 6.755255 -70.000175
418 1 -8.760471 7.881223 -69.999591
419 1 -7.461045 7.880872 -70.000129
420 1 -6.160955 7.881159 -70.000476
421 1 -4.860784 7.881006 -69.999701
422 1 -3.560710 7.880518 -70.000423
423 1 -2.260955 7.880832 -69.999805
424 1 -0.960475 7.880503 -70.000023
425 1 0.339210 7.880875 -69.999997
426 1 1.638743 7.880685 -69.999881
427 1 2.939515 7.880439 -70.000044
428 1 4.239067 7.880827 -70.000097
429 1 5.538848 7.880778 -70.000137
430 1 6.839471 7.880545 -70.000330
431 1 8.139546 7.880763 -70.000207
432 1 -6.810388 9.006480 -70.000286
433 1 -5.511151 9.006180 -70.000051
434 1 -4.211005 9.006851 -69.999841
435 1 -2.911001 9.006463 -69.999634
436 1 -1.611119 9.006339 -70.000395
437 1 -0.311268 9.006904 -69.999612
438 1 0.988952 9.007159 -69.999716
439 1 2.288796 9.006707 -70.000084
440 1 3.588775 9.006825 -70.000436
441 1 4.889243 9.006944 -69.999503
442 1 6.189546 9.006484 -69.999607
443 1 7.489284 9.006851 -69.999837
444 1 -6.160782 10.132347 -70.000392
445 1 -4.860700 10.132226 -69.999925
446 1 -3.560527 10.132989 -69.999626
447 1 -2.260471 10.132532 -70.000430
448 1 -0.961335 10.132248 -70.000366
449 1 0.339231 10.132093 -70.000484
450 1 1.639180 10.132050 -69.999617
451 1 2.939575 10.132105 -69.999612
452 1 4.239051 10.132523 -70.000430
453 1 5.538869 10.132071 -69.999716
454 1 -4.211271 11.258563 -69.999543
455 1 -2.910615 11.258176 -69.999542
456 1 -1.611230 11.258075 -70.000190
457 1 -0.311354 11.258336 -69.999961
458 1 0.989104 11.258815 -69.999753
459 1 2.288978 11.258425 -69.999929
460 1 3.588878 11.258360 -70.000054
461 2 -0.311065 0.000048 -64.499778
ITEM: TIMESTEP
50000
ITEM: NUMBER OF ATOMS
461
ITEM: BOX BOUNDS pp pp pp
-14.500000 14.500000
-14.500000 14.500000
-98.500000 98.500000
ITEM: ATOMS id type x y z
1 1 -12.661199 -12.384623 -69.999564
2 1 -11.360913 -12.383929 -70.000258
3 1 -10.061051 -12.384037 -69.999676
4 1 -8.761065 -12.384582 -70.000231
5 1 -7.460506 -12.384161 -69.999672
6 1 -6.160968 -12.384605 -70.000205
7 1 -4.861182 -12.384125 -70.000408
8 1 -3.560685 -12.384418 -70.000161
9 1 -2.261351 -12.383942 -69.999961
10 1 -0.961339 -12.383969 -69.999685
11 1 0.339137 -12.384087 -70.000492
12 1 1.639330 -12.383937 -70.000164
13 1 2.939484 -12.384052 -70.000420
14 1 4.238869 -12.383787 -69.999651
15 1 5.539080 -12.384117 -70.000269
16 1 6.839358 -12.383854 -69.999958
17 1 8.138702 -12.384651 -70.000142
18 1 9.439161 -12.384531 -69.999545
19 1 10.739009 -12.383742 -70.000254
20 1 12.039297 -12.384507 -69.999667
21 1 -12.011353 -11.258187 -69.999533
22 1 -10.711248 -11.258515 -70.000197
23 1 -9.410842 -11.258264 -70.000452
24 1 -8.111005 -11.258077 -70.000134
25 1 -6.810921 -11.258767 -70.000344
26 1 -5.510988 -11.258506 -69.999711
27 1 4.889571 -11.258020 -69.999892
28 1 6.189246 -11.258719 -69.999658
29 1 7.489182 -11.257878 -69.999680
30 1 8.789229 -11.258791 -69.999820
31 1 10.088925 -11.258590 -70.000407
32 1 11.389098 -11.258806 -69.999646
33 1 12.689097 -11.258099 -70.000187
34 1 -12.661358 -10.132383 -69.999601
35 1 -11.360684 -10.132993 -69.999819
36 1 -10.061061 -10.132744 -69.999914
37 1 -8.760485 -10.132678 -69.999966
38 1 -7.460568 -10.132230 -69.999620
39 1 6.838848 -10.132412 -69.999692
40 1 8.138795 -10.132779 -70.000135
41 1 9.438969 -10.132430 -70.000263
42 1 10.739470 -10.132733 -69.999749
43 1 12.038781 -10.132487 -69.999602
44 1 -12.010375 -9.006879 -69.999730
45 1 -10.711347 -9.006811 -70.000425
46 1 -9.410850 -9.006435 -70.000189
47 1 -8.110832 -9.007019 -69.999765
48 1 8.789054 -9.006849 -70.000132
49 1 10.089320 -9.006328 -69.999667
50 1 11.388856 -9.006330 -70.000003
51 1 12.688851 -9.006896 -69.999761
52 1 -12.660372 -7.880946 -69.999741
53 1 -11.361252 -7.880867 -69.999751
54 1 -10.061163 -7.881153 -70.000413
55 1 9.438932 -7.881168 -69.999694
56 1 10.738916 -7.880910 -69.999630
57 1 12.038880 -7.880361 -70.000242
58 1 -12.010701 -6.755492 -69.999709
59 1 -10.710405 -6.755320 -70.000453
60 1 10.088882 -6.754661 -69.999506
61 1 11.389327 -6.755461 -69.999568
62 1 12.688909 -6.754917 -70.000129
63 1 -12.660802 -5.629177 -69.999814
64 1 -11.360648 -5.629278 -69.999929
65 1 10.738934 -5.628711 -70.000003
66 1 12.039060 -5.629291 -70.000096
67 1 -12.010994 -4.502851 -70.000011
68 1 11.388786 -4.503441 -70.000053
69 1 12.689292 -4.503092 -70.000086
70 1 -12.661060 -3.377476 -69.999528
71 1 12.038741 -3.377251 -69.999575
72 1 -12.010737 -2.251644 -70.000451
73 1 12.689050 -2.251746 -69.999836
74 1 -12.661337 -1.125664 -70.000390
75 1 12.039174 -1.125672 -69.999768
76 1 12.688724 0.000098 -69.999862
77 1 -12.661138 1.126195 -70.000028
78 1 12.039415 1.125815 -70.000497
79 1 -12.011369 2.251751 -69.999689
80 1 12.689329 2.251579 -70.000144
81 1 -12.660606 3.377643 -70.000228
82 1 12.039440 3.377014 -69.999725
83 1 -12.010913 4.502918 -70.000177
84 1 11.388707 4.502899 -69.999587
85 1 12.688843 4.503028 -70.000141
86 1 -12.661216 5.629304 -70.000234
87 1 -11.360924 5.628983 -70.000373
88 1 10.739237 5.628909 -70.000111
89 1 12.039485 5.628872 -70.000336
90 1 -12.010637 6.754817 -69.999886
91 1 -10.710518 6.755072 -70.000177
92 1 10.088926 6.754853 -70.000240
93 1 11.389217 6.754792 -69.999623
94 1 12.689452 6.755048 -70.000432
95 1 -12.660916 7.880826 -69.999773
96 1 -11.360651 7.881240 -70.000189
97 1 -10.060459 7.881160 -70.000284
98 1 9.438932 7.880948 -70.000206
99 1 10.738860 7.881255 -69.999771
100 1 12.039441 7.881306 -69.999599
101 1 -12.011166 9.006969 -70.000151
102 1 -10.710817 9.006241 -70.000197
103 1 -9.410425 9.006367 -69.999777
104 1 -8.111014 9.006771 -70.000417
105 1 8.788696 9.006933 -70.000109
106 1 10.088802 9.006406 -69.999537
107 1 11.389111 9.006392 -70.000138
108 1 12.688832 9.006999 -70.000219
109 1 -12.660831 10.132250 -70.000134
110 1 -11.360850 10.132233 -69.999511
111 1 -10.061251 10.132872 -70.000166
112 1 -8.760634 10.132595 -69.999593
113 1 -7.460750 10.132212 -70.000250
114 1 6.839123 10.132969 -70.000222
115 1 8.138934 10.132471 -70.000076
116 1 9.439423 10.132260 -69.999625
117 1 10.739443 10.132820 -70.000134
118 1 12.039487 10.132688 -69.999564
119 1 -12.011274 11.258408 -69.999585
120 1 -10.711358 11.258097 -69.999549
121 1 -9.411235 11.258159 -69.999972
122 1 -8.110663 11.258747 -70.000267
123 1 -6.810392 11.258336 -70.000352
124 1 -5.510413 11.258472 -70.000073
125 1 4.889142 11.258475 -70.000258
126 1 6.188776 11.258329 -69.999661
127 1 7.488649 11.258263 -70.000035
128 1 8.788670 11.258493 -70.000198
129 1 10.089289 11.258750 -69.999524
130 1 11.389265 11.258598 -69.999612
131 1 12.689516 11.258256 -70.000462
132 1 -12.661265 12.384266 -69.999696
133 1 -11.361098 12.384297 -69.999576
134 1 -10.060649 12.383980 -69.999597
135 1 -8.761245 12.384564 -69.999508
136 1 -7.461133 12.383898 -70.000018
137 1 -6.160797 12.383938 -70.000250
138 1 -4.861107 12.383849 -70.000366
139 1 -3.560778 12.384568 -70.000500
140 1 -2.261174 12.384316 -69.999782
141 1 -0.961018 12.383793 -70.000428
142 1 0.338661 12.384400 -70.000445
143 1 1.639146 12.383775 -70.000091
144 1 2.938991 12.384226 -70.000295
145 1 4.239212 12.383985 -70.000235
146 1 5.539166 12.384201 -70.000235
147 1 6.838818 12.383841 -70.000216
148 1 8.139599 12.383753 -69.999592
149 1 9.439083 12.384174 -69.999679
150 1 10.739223 12.384235 -69.999597
151 1 12.039347 12.383992 -70.000193
152 1 -4.211252 -11.258326 -70.000175
153 1 -2.911228 -11.258683 -70.000421
154 1 -1.610493 -11.257936 -70.000054
155 1 -0.311267 -11.258127 -69.999985
156 1 0.989318 -11.258760 -70.000243
157 1 2.289052 -11.258413 -69.999698
158 1 3.588860 -11.257909 -69.999627
159 1 -6.160935 -10.132082 -69.999691
160 1 -4.861116 -10.132693 -70.000487
161 1 -0.852695 -9.496842 -69.998448
162 1 0.808324 -9.957608 -69.927882
163 1 1.057342 -8.136861 -69.868751
164 1 1.835207 -10.227752 -70.014712
165 1 2.377863 -8.032281 -69.832739
166 1 3.245825 -9.312330 -70.107741
167 1 4.238945 -10.132142 -69.999589
168 1 5.538840 -10.132100 -70.000184
169 1 -6.810783 -9.006316 -69.999504
170 1 -4.687802 -8.943629 -69.864047
171 1 -2.211059 -8.562560 -69.739346
172 1 -3.447504 -7.064480 -69.991394
173 1 0.841101 -6.057959 -69.865413
174 1 -4.256697 -5.204273 -70.275997
175 1 0.045088 -7.122340 -70.169636
176 1 1.712868 -7.158002 -69.922728
177 1 3.596692 -8.171018 -69.869103
178 1 4.597139 -8.539317 -69.963189
179 1 6.189515 -9.007071 -69.999801
180 1 7.488861 -9.006499 -69.999675
181 1 -8.761324 -7.881200 -69.999600
182 1 -7.460884 -7.880907 -69.999857
183 1 -6.141327 -8.059492 -69.867255
184 1 -5.568643 -7.066172 -69.948878
185 1 0.135542 -9.097015 -69.907322
186 1 -5.246449 -4.799683 -70.308246
187 1 -1.501839 -7.158612 -70.086915
188 1 -0.822335 -5.987393 -70.201485
189 1 3.306070 -6.895106 -69.681223
190 1 1.592085 -9.221673 -70.145718
191 1 4.440566 -7.264874 -69.791916
192 1 6.717395 -6.735435 -69.795460
193 1 7.749309 -5.799889 -69.992229
194 1 8.139489 -7.880592 -70.000362
195 1 -9.410850 -6.755094 -70.000286
196 1 -6.648765 -6.837515 -70.039413
197 1 -7.224388 -5.829507 -70.079198
198 1 -4.652355 -7.884698 -69.733443
199 1 -3.520746 -9.688248 -69.645318
200 1 -2.785602 -3.807614 -70.357113
201 1 -0.642870 -8.090315 -70.027771
202 1 -2.499620 -7.396837 -69.860362
203 1 2.402356 -6.365486 -69.802838
204 1 1.367840 -5.163138 -69.715259
205 1 4.578821 -4.575021 -69.766663
206 1 5.413494 -6.752241 -69.805734
207 1 5.736945 -7.881836 -69.934373
208 1 7.305512 -3.537625 -69.773510
209 1 8.789600 -6.755127 -69.999540
210 1 -10.060541 -5.629578 -69.999647
211 1 -7.956897 -6.709815 -70.001414
212 1 -5.763727 -3.461642 -70.374250
213 1 -4.580408 -3.793355 -70.475527
214 1 -5.745510 -2.345007 -70.443905
215 1 -1.209082 -1.384883 -70.072675
216 1 -4.698779 -6.293541 -70.049125
217 1 -5.639556 -5.943568 -70.208615
218 1 -2.589162 -4.831942 -70.202269
219 1 -1.404074 -5.124665 -70.216738
220 1 0.422758 -3.105512 -70.232135
221 1 2.384067 -4.908155 -69.636956
222 1 5.758731 -4.194821 -69.808207
223 1 5.819484 -5.442819 -69.685815
224 1 7.085873 -5.059647 -69.809686
225 1 9.439062 -5.629626 -69.999552
226 1 -10.710489 -4.503404 -69.999515
227 1 -9.012089 -5.494718 -69.972281
228 1 -9.990812 -1.097166 -70.179530
229 1 -6.259214 -4.918372 -70.158643
230 1 -7.926919 -5.024245 -70.051062
231 1 -2.231933 -1.045528 -70.181288
232 1 -3.614058 -8.191396 -69.759400
233 1 -1.983315 -6.163476 -70.030876
234 1 -3.595059 -6.059813 -70.099204
235 1 0.096204 -5.076425 -70.055183
236 1 -1.714236 -3.694400 -70.388411
237 1 -0.437287 -3.901637 -70.416121
238 1 3.139711 -5.675716 -69.691914
239 1 6.232419 -3.286638 -69.840260
240 1 8.537864 -3.544399 -70.019312
241 1 8.429868 -4.524282 -69.830895
242 1 10.089523 -4.503446 -69.999890
243 1 -11.361320 -3.377411 -69.999958
244 1 -8.527185 -4.176229 -70.111885
245 1 -10.459416 -0.062641 -70.184764
246 1 -9.489411 -3.212712 -70.091319
247 1 -7.077190 -3.574528 -70.133571
248 1 -4.572580 -2.323441 -70.431845
249 1 -6.799884 -2.294938 -70.231480
250 1 -3.685893 -4.342993 -70.334556
251 1 1.446761 -1.920190 -70.189026
252 1 -2.211498 -2.634154 -70.347999
253 1 1.996874 -0.969803 -70.256233
254 1 0.772559 -4.056312 -70.185976
255 1 4.514977 -3.413527 -69.880091
256 1 6.745876 -1.173363 -70.174729
257 1 5.251613 -2.599146 -69.996803
258 1 7.696965 -2.152684 -70.096087
259 1 9.573671 -3.575926 -69.973898
260 1 10.739538 -3.377657 -70.000003
261 1 -10.710807 -2.251590 -69.999744
262 1 -10.186898 1.258056 -70.062322
263 1 -7.826883 -1.722255 -70.146193
264 1 -7.283649 -0.534449 -70.616593
265 1 -6.316940 -1.033717 -70.507551
266 1 -3.261526 -2.238397 -70.466124
267 1 -3.752160 -3.188780 -70.472367
268 1 0.854494 -0.859373 -70.277832
269 1 -1.001858 -2.604256 -70.224471
270 1 1.991569 0.957231 -70.279652
271 1 3.584770 -4.564235 -69.610779
272 1 1.500546 -2.985129 -70.120437
273 1 4.325177 -5.591061 -69.672827
274 1 3.293461 -3.501029 -69.711439
275 1 6.695638 -2.246237 -69.985564
276 1 9.036952 -2.670056 -70.077013
277 1 10.353049 -2.058814 -69.985501
278 1 11.389577 -2.252117 -70.000211
279 1 -11.360682 -1.125652 -69.999645
280 1 -9.451915 -2.075462 -70.125470
281 1 -8.484412 -2.619942 -70.079300
282 1 -7.719342 2.569885 -70.464734
283 1 -8.115592 0.221268 -70.299824
284 1 -5.276675 -0.256999 -70.774736
285 1 -3.893835 -0.826214 -70.365067
286 1 -0.113844 -0.327525 -70.195921
287 1 -4.092308 0.786358 -70.712429
288 1 2.563376 -2.446711 -69.808797
289 1 4.105960 0.284918 -70.322808
290 1 2.137240 -3.864753 -69.970961
291 1 5.522248 -1.553348 -70.156612
292 1 8.381084 -1.219509 -70.457666
293 1 8.196875 -0.162212 -70.224729
294 1 5.140772 0.247269 -70.269310
295 1 10.361215 2.180777 -70.213771
296 1 10.739619 -1.125814 -69.999818
297 1 -12.010952 -0.000129 -70.000065
298 1 -9.585729 2.070096 -70.179743
299 1 -9.387198 0.078174 -70.207956
300 1 -6.313724 1.996976 -70.669292
301 1 -7.086105 1.081181 -70.600876
302 1 -6.261698 0.413695 -70.697421
303 1 -8.659647 -0.737919 -70.244410
304 1 -5.296422 -1.405197 -70.631764
305 1 -3.140121 1.079560 -70.588365
306 1 -2.846832 0.020588 -70.346950
307 1 -0.039938 -1.515414 -70.271159
308 1 3.119680 -1.065037 -70.188058
309 1 4.518200 -1.223654 -70.130956
310 1 3.100065 0.087796 -70.318991
311 1 5.783144 -0.561704 -70.275031
312 1 7.316741 0.758231 -70.275728
313 1 9.261337 0.009263 -70.187760
314 1 7.170040 -0.271441 -70.301984
315 1 11.388631 0.000194 -70.000367
316 1 -11.361126 1.126124 -69.999519
317 1 -7.507030 3.834050 -70.444725
318 1 -8.184843 1.654370 -70.492468
319 1 -2.729075 3.419875 -71.049195
320 1 -6.250064 5.795082 -70.448625
321 1 -5.388072 1.175164 -70.794384
322 1 -4.095600 1.788701 -70.725301
323 1 -2.712257 2.037074 -70.642031
324 1 -1.743037 0.138672 -70.213731
325 1 1.725527 2.929416 -70.477098
326 1 4.299533 3.385487 -70.388995
327 1 4.818262 2.133898 -70.373920
328 1 5.649602 1.422985 -70.305353
329 1 3.826294 -2.366325 -69.922085
330 1 9.662954 1.113419 -70.111336
331 1 8.613469 1.112147 -70.252246
332 1 9.516449 -1.518284 -70.222194
333 1 10.738883 1.125443 -70.000080
334 1 -10.711065 2.251921 -69.999992
335 1 -9.978622 3.531063 -70.062106
336 1 -9.067124 1.026986 -70.213347
337 1 -6.522228 3.590463 -70.551283
338 1 -4.558458 5.966528 -70.740065
339 1 -3.797880 3.193680 -70.911865
340 1 -1.704764 1.193525 -70.393134
341 1 0.436305 0.708117 -70.171253
342 1 2.444413 2.129209 -70.294442
343 1 0.674030 4.159840 -70.815816
344 1 3.665426 2.441979 -70.402673
345 1 3.146557 1.285923 -70.249754
346 1 6.189716 2.582691 -70.254903
347 1 4.194338 1.347781 -70.253493
348 1 7.141160 1.848843 -70.196453
349 1 5.426846 3.598869 -70.343939
350 1 9.731067 3.203335 -70.148992
351 1 11.388688 2.251635 -69.999619
352 1 -11.360570 3.377084 -69.999787
353 1 -9.569882 4.711452 -70.087709
354 1 -8.847286 2.914839 -70.258374
355 1 -5.443228 2.836487 -70.783263