LAMMPS data file generated by Adam Prada's python script for cylindrical hex membrane

5000 atoms
1 atom types
5000 ellipsoids

-86.6025   +86.6025 xlo xhi
-100.0000  +100.0000 ylo yhi
-100.0000  +100.0000 zlo zhi


# How atoms are defined:
# There are first set in
# atom_style ellipsoid

# For ellipsoid Atoms, the order of parameters is:
# atom-ID atom-type ellipsoidflag density x y z
# Where:
# ellipsoidflag = 1 for ellipsoids, 0 for point particles

# For hybrid atoms, the order of parameters is:
# atom-ID atom-type x y z
# Followed by extra parameters for the styles listed, i.e.
# ellipsoid: ellipsoidflag, density
# bond: [none]
# molecular: molecule-ID

# For Ellipsoids, the order of parameters is:
# atom-ID shapex shapey shapez quatw quati quatj quatk
# Where:
# shapex/y/z are the diameters and quatw/i/j/k are the quaternion components
# Note that the shape attributes specify the aspect ratios of an ellipsoidal particle, which is oriented by default with its x-axis along the simulation box’s x-axis, and similarly for y and z. If this body is rotated (via the right-hand rule) by an angle theta around a unit vector (a,b,c), then the quaternion that represents its new orientation is given by (cos(theta/2), a*sin(theta/2), b*sin(theta/2), c*sin(theta/2)). These 4 components are quatw, quati, quatj, and quatk as specified above. LAMMPS normalizes each atom’s quaternion in case (a,b,c) is not specified as a unit vector.

Atoms # ellipsoid

     1    1      -86.6025       +0.0000       +3.9894    1    1         0
     2    1      -86.6025       +0.9921       +3.8640    1    1         0
     3    1      -86.6025       +1.9219       +3.4959    1    1         0
     4    1      -86.6025       +2.7309       +2.9081    1    1         0
     5    1      -86.6025       +3.3683       +2.1376    1    1         0
     6    1      -86.6025       +3.7941       +1.2328    1    1         0
     7    1      -86.6025       +3.9815       +0.2505    1    1         0
     8    1      -86.6025       +3.9187       -0.7475    1    1         0
     9    1      -86.6025       +3.6097       -1.6986    1    1         0
    10    1      -86.6025       +3.0739       -2.5429    1    1         0
    11    1      -86.6025       +2.3449       -3.2275    1    1         0
    12    1      -86.6025       +1.4686       -3.7092    1    1         0
    13    1      -86.6025       +0.5000       -3.9579    1    1         0
    14    1      -86.6025       -0.5000       -3.9579    1    1         0
    15    1      -86.6025       -1.4686       -3.7092    1    1         0
    16    1      -86.6025       -2.3449       -3.2275    1    1         0
    17    1      -86.6025       -3.0739       -2.5429    1    1         0
    18    1      -86.6025       -3.6097       -1.6986    1    1         0
    19    1      -86.6025       -3.9187       -0.7475    1    1         0
    20    1      -86.6025       -3.9815       +0.2505    1    1         0
    21    1      -86.6025       -3.7941       +1.2328    1    1         0
    22    1      -86.6025       -3.3683       +2.1376    1    1         0
    23    1      -86.6025       -2.7309       +2.9081    1    1         0
    24    1      -86.6025       -1.9219       +3.4959    1    1         0
    25    1      -86.6025       -0.9921       +3.8640    1    1         0
    26    1      -85.7365       +0.5000       +3.9579    1    1         0
    27    1      -85.7365       +1.4686       +3.7092    1    1         0
    28    1      -85.7365       +2.3449       +3.2275    1    1         0
    29    1      -85.7365       +3.0739       +2.5429    1    1         0
    30    1      -85.7365       +3.6097       +1.6986    1    1         0
    31    1      -85.7365       +3.9187       +0.7475    1    1         0
    32    1      -85.7365       +3.9815       -0.2505    1    1         0
    33    1      -85.7365       +3.7941       -1.2328    1    1         0
    34    1      -85.7365       +3.3683       -2.1376    1    1         0
    35    1      -85.7365       +2.7309       -2.9081    1    1         0
    36    1      -85.7365       +1.9219       -3.4959    1    1         0
    37    1      -85.7365       +0.9921       -3.8640    1    1         0
    38    1      -85.7365       -0.0000       -3.9894    1    1         0
    39    1      -85.7365       -0.9921       -3.8640    1    1         0
    40    1      -85.7365       -1.9219       -3.4959    1    1         0
    41    1      -85.7365       -2.7309       -2.9081    1    1         0
    42    1      -85.7365       -3.3683       -2.1376    1    1         0
    43    1      -85.7365       -3.7941       -1.2328    1    1         0
    44    1      -85.7365       -3.9815       -0.2505    1    1         0
    45    1      -85.7365       -3.9187       +0.7475    1    1         0
    46    1      -85.7365       -3.6097       +1.6986    1    1         0
    47    1      -85.7365       -3.0739       +2.5429    1    1         0
    48    1      -85.7365       -2.3449       +3.2275    1    1         0
    49    1      -85.7365       -1.4686       +3.7092    1    1         0
    50    1      -85.7365       -0.5000       +3.9579    1    1         0
    51    1      -84.8705       +0.0000       +3.9894    1    1         0
    52    1      -84.8705       +0.9921       +3.8640    1    1         0
    53    1      -84.8705       +1.9219       +3.4959    1    1         0
    54    1      -84.8705       +2.7309       +2.9081    1    1         0
    55    1      -84.8705       +3.3683       +2.1376    1    1         0
    56    1      -84.8705       +3.7941       +1.2328    1    1         0
    57    1      -84.8705       +3.9815       +0.2505    1    1         0
    58    1      -84.8705       +3.9187       -0.7475    1    1         0
    59    1      -84.8705       +3.6097       -1.6986    1    1         0
    60    1      -84.8705       +3.0739       -2.5429    1    1         0
    61    1      -84.8705       +2.3449       -3.2275    1    1         0
    62    1      -84.8705       +1.4686       -3.7092    1    1         0
    63    1      -84.8705       +0.5000       -3.9579    1    1         0
    64    1      -84.8705       -0.5000       -3.9579    1    1         0
    65    1      -84.8705       -1.4686       -3.7092    1    1         0
    66    1      -84.8705       -2.3449       -3.2275    1    1         0
    67    1      -84.8705       -3.0739       -2.5429    1    1         0
    68    1      -84.8705       -3.6097       -1.6986    1    1         0
    69    1      -84.8705       -3.9187       -0.7475    1    1         0
    70    1      -84.8705       -3.9815       +0.2505    1    1         0
    71    1      -84.8705       -3.7941       +1.2328    1    1         0
    72    1      -84.8705       -3.3683       +2.1376    1    1         0
    73    1      -84.8705       -2.7309       +2.9081    1    1         0
    74    1      -84.8705       -1.9219       +3.4959    1    1         0
    75    1      -84.8705       -0.9921       +3.8640    1    1         0
    76    1      -84.0045       +0.5000       +3.9579    1    1         0
    77    1      -84.0045       +1.4686       +3.7092    1    1         0
    78    1      -84.0045       +2.3449       +3.2275    1    1         0
    79    1      -84.0045       +3.0739       +2.5429    1    1         0
    80    1      -84.0045       +3.6097       +1.6986    1    1         0
    81    1      -84.0045       +3.9187       +0.7475    1    1         0
    82    1      -84.0045       +3.9815       -0.2505    1    1         0
    83    1      -84.0045       +3.7941       -1.2328    1    1         0
    84    1      -84.0045       +3.3683       -2.1376    1    1         0
    85    1      -84.0045       +2.7309       -2.9081    1    1         0
    86    1      -84.0045       +1.9219       -3.4959    1    1         0
    87    1      -84.0045       +0.9921       -3.8640    1    1         0
    88    1      -84.0045       -0.0000       -3.9894    1    1         0
    89    1      -84.0045       -0.9921       -3.8640    1    1         0
    90    1      -84.0045       -1.9219       -3.4959    1    1         0
    91    1      -84.0045       -2.7309       -2.9081    1    1         0
    92    1      -84.0045       -3.3683       -2.1376    1    1         0
    93    1      -84.0045       -3.7941       -1.2328    1    1         0
    94    1      -84.0045       -3.9815       -0.2505    1    1         0
    95    1      -84.0045       -3.9187       +0.7475    1    1         0
    96    1      -84.0045       -3.6097       +1.6986    1    1         0
    97    1      -84.0045       -3.0739       +2.5429    1    1         0
    98    1      -84.0045       -2.3449       +3.2275    1    1         0
    99    1      -84.0045       -1.4686       +3.7092    1    1         0
   100    1      -84.0045       -0.5000       +3.9579    1    1         0
   101    1      -83.1384       +0.0000       +3.9894    1    1         0
   102    1      -83.1384       +0.9921       +3.8640    1    1         0
   103    1      -83.1384       +1.9219       +3.4959    1    1         0
   104    1      -83.1384       +2.7309       +2.9081    1    1         0
   105    1      -83.1384       +3.3683       +2.1376    1    1         0
   106    1      -83.1384       +3.7941       +1.2328    1    1         0
   107    1      -83.1384       +3.9815       +0.2505    1    1         0
   108    1      -83.1384       +3.9187       -0.7475    1    1         0
   109    1      -83.1384       +3.6097       -1.6986    1    1         0
   110    1      -83.1384       +3.0739       -2.5429    1    1         0
   111    1      -83.1384       +2.3449       -3.2275    1    1         0
   112    1      -83.1384       +1.4686       -3.7092    1    1         0
   113    1      -83.1384       +0.5000       -3.9579    1    1         0
   114    1      -83.1384       -0.5000       -3.9579    1    1         0
   115    1      -83.1384       -1.4686       -3.7092    1    1         0
   116    1      -83.1384       -2.3449       -3.2275    1    1         0
   117    1      -83.1384       -3.0739       -2.5429    1    1         0
   118    1      -83.1384       -3.6097       -1.6986    1    1         0
   119    1      -83.1384       -3.9187       -0.7475    1    1         0
   120    1      -83.1384       -3.9815       +0.2505    1    1         0
   121    1      -83.1384       -3.7941       +1.2328    1    1         0
   122    1      -83.1384       -3.3683       +2.1376    1    1         0
   123    1      -83.1384       -2.7309       +2.9081    1    1         0
   124    1      -83.1384       -1.9219       +3.4959    1    1         0
   125    1      -83.1384       -0.9921       +3.8640    1    1         0
   126    1      -82.2724       +0.5000       +3.9579    1    1         0
   127    1      -82.2724       +1.4686       +3.7092    1    1         0
   128    1      -82.2724       +2.3449       +3.2275    1    1         0
   129    1      -82.2724       +3.0739       +2.5429    1    1         0
   130    1      -82.2724       +3.6097       +1.6986    1    1         0
   131    1      -82.2724       +3.9187       +0.7475    1    1         0
   132    1      -82.2724       +3.9815       -0.2505    1    1         0
   133    1      -82.2724       +3.7941       -1.2328    1    1         0
   134    1      -82.2724       +3.3683       -2.1376    1    1         0
   135    1      -82.2724       +2.7309       -2.9081    1    1         0
   136    1      -82.2724       +1.9219       -3.4959    1    1         0
   137    1      -82.2724       +0.9921       -3.8640    1    1         0
   138    1      -82.2724       -0.0000       -3.9894    1    1         0
   139    1      -82.2724       -0.9921       -3.8640    1    1         0
   140    1      -82.2724       -1.9219       -3.4959    1    1         0
   141    1      -82.2724       -2.7309       -2.9081    1    1         0
   142    1      -82.2724       -3.3683       -2.1376    1    1         0
   143    1      -82.2724       -3.7941       -1.2328    1    1         0
   144    1      -82.2724       -3.9815       -0.2505    1    1         0
   145    1      -82.2724       -3.9187       +0.7475    1    1         0
   146    1      -82.2724       -3.6097       +1.6986    1    1         0
   147    1      -82.2724       -3.0739       +2.5429    1    1         0
   148    1      -82.2724       -2.3449       +3.2275    1    1         0
   149    1      -82.2724       -1.4686       +3.7092    1    1         0
   150    1      -82.2724       -0.5000       +3.9579    1    1         0
   151    1      -81.4064       +0.0000       +3.9894    1    1         0
   152    1      -81.4064       +0.9921       +3.8640    1    1         0
   153    1      -81.4064       +1.9219       +3.4959    1    1         0
   154    1      -81.4064       +2.7309       +2.9081    1    1         0
   155    1      -81.4064       +3.3683       +2.1376    1    1         0
   156    1      -81.4064       +3.7941       +1.2328    1    1         0
   157    1      -81.4064       +3.9815       +0.2505    1    1         0
   158    1      -81.4064       +3.9187       -0.7475    1    1         0
   159    1      -81.4064       +3.6097       -1.6986    1    1         0
   160    1      -81.4064       +3.0739       -2.5429    1    1         0
   161    1      -81.4064       +2.3449       -3.2275    1    1         0
   162    1      -81.4064       +1.4686       -3.7092    1    1         0
   163    1      -81.4064       +0.5000       -3.9579    1    1         0
   164    1      -81.4064       -0.5000       -3.9579    1    1         0
   165    1      -81.4064       -1.4686       -3.7092    1    1         0
   166    1      -81.4064       -2.3449       -3.2275    1    1         0
   167    1      -81.4064       -3.0739       -2.5429    1    1         0
   168    1      -81.4064       -3.6097       -1.6986    1    1         0
   169    1      -81.4064       -3.9187       -0.7475    1    1         0
   170    1      -81.4064       -3.9815       +0.2505    1    1         0
   171    1      -81.4064       -3.7941       +1.2328    1    1         0
   172    1      -81.4064       -3.3683       +2.1376    1    1         0
   173    1      -81.4064       -2.7309       +2.9081    1    1         0
   174    1      -81.4064       -1.9219       +3.4959    1    1         0
   175    1      -81.4064       -0.9921       +3.8640    1    1         0
   176    1      -80.5404       +0.5000       +3.9579    1    1         0
   177    1      -80.5404       +1.4686       +3.7092    1    1         0
   178    1      -80.5404       +2.3449       +3.2275    1    1         0
   179    1      -80.5404       +3.0739       +2.5429    1    1         0
   180    1      -80.5404       +3.6097       +1.6986    1    1         0
   181    1      -80.5404       +3.9187       +0.7475    1    1         0
   182    1      -80.5404       +3.9815       -0.2505    1    1         0
   183    1      -80.5404       +3.7941       -1.2328    1    1         0
   184    1      -80.5404       +3.3683       -2.1376    1    1         0
   185    1      -80.5404       +2.7309       -2.9081    1    1         0
   186    1      -80.5404       +1.9219       -3.4959    1    1         0
   187    1      -80.5404       +0.9921       -3.8640    1    1         0
   188    1      -80.5404       -0.0000       -3.9894    1    1         0
   189    1      -80.5404       -0.9921       -3.8640    1    1         0
   190    1      -80.5404       -1.9219       -3.4959    1    1         0
   191    1      -80.5404       -2.7309       -2.9081    1    1         0
   192    1      -80.5404       -3.3683       -2.1376    1    1         0
   193    1      -80.5404       -3.7941       -1.2328    1    1         0
   194    1      -80.5404       -3.9815       -0.2505    1    1         0
   195    1      -80.5404       -3.9187       +0.7475    1    1         0
   196    1      -80.5404       -3.6097       +1.6986    1    1         0
   197    1      -80.5404       -3.0739       +2.5429    1    1         0
   198    1      -80.5404       -2.3449       +3.2275    1    1         0
   199    1      -80.5404       -1.4686       +3.7092    1    1         0
   200    1      -80.5404       -0.5000       +3.9579    1    1         0
   201    1      -79.6743       +0.0000       +3.9894    1    1         0
   202    1      -79.6743       +0.9921       +3.8640    1    1         0
   203    1      -79.6743       +1.9219       +3.4959    1    1         0
   204    1      -79.6743       +2.7309       +2.9081    1    1         0
   205    1      -79.6743       +3.3683       +2.1376    1    1         0
   206    1      -79.6743       +3.7941       +1.2328    1    1         0
   207    1      -79.6743       +3.9815       +0.2505    1    1         0
   208    1      -79.6743       +3.9187       -0.7475    1    1         0
   209    1      -79.6743       +3.6097       -1.6986    1    1         0
   210    1      -79.6743       +3.0739       -2.5429    1    1         0
   211    1      -79.6743       +2.3449       -3.2275    1    1         0
   212    1      -79.6743       +1.4686       -3.7092    1    1         0
   213    1      -79.6743       +0.5000       -3.9579    1    1         0
   214    1      -79.6743       -0.5000       -3.9579    1    1         0
   215    1      -79.6743       -1.4686       -3.7092    1    1         0
   216    1      -79.6743       -2.3449       -3.2275    1    1         0
   217    1      -79.6743       -3.0739       -2.5429    1    1         0
   218    1      -79.6743       -3.6097       -1.6986    1    1         0
   219    1      -79.6743       -3.9187       -0.7475    1    1         0
   220    1      -79.6743       -3.9815       +0.2505    1    1         0
   221    1      -79.6743       -3.7941       +1.2328    1    1         0
   222    1      -79.6743       -3.3683       +2.1376    1    1         0
   223    1      -79.6743       -2.7309       +2.9081    1    1         0
   224    1      -79.6743       -1.9219       +3.4959    1    1         0
   225    1      -79.6743       -0.9921       +3.8640    1    1         0
   226    1      -78.8083       +0.5000       +3.9579    1    1         0
   227    1      -78.8083       +1.4686       +3.7092    1    1         0
   228    1      -78.8083       +2.3449       +3.2275    1    1         0
   229    1      -78.8083       +3.0739       +2.5429    1    1         0
   230    1      -78.8083       +3.6097       +1.6986    1    1         0
   231    1      -78.8083       +3.9187       +0.7475    1    1         0
   232    1      -78.8083       +3.9815       -0.2505    1    1         0
   233    1      -78.8083       +3.7941       -1.2328    1    1         0
   234    1      -78.8083       +3.3683       -2.1376    1    1         0
   235    1      -78.8083       +2.7309       -2.9081    1    1         0
   236    1      -78.8083       +1.9219       -3.4959    1    1         0
   237    1      -78.8083       +0.9921       -3.8640    1    1         0
   238    1      -78.8083       -0.0000       -3.9894    1    1         0
   239    1      -78.8083       -0.9921       -3.8640    1    1         0
   240    1      -78.8083       -1.9219       -3.4959    1    1         0
   241    1      -78.8083       -2.7309       -2.9081    1    1         0
   242    1      -78.8083       -3.3683       -2.1376    1    1         0
   243    1      -78.8083       -3.7941       -1.2328    1    1         0
   244    1      -78.8083       -3.9815       -0.2505    1    1         0
   245    1      -78.8083       -3.9187       +0.7475    1    1         0
   246    1      -78.8083       -3.6097       +1.6986    1    1         0
   247    1      -78.8083       -3.0739       +2.5429    1    1         0
   248    1      -78.8083       -2.3449       +3.2275    1    1         0
   249    1      -78.8083       -1.4686       +3.7092    1    1         0
   250    1      -78.8083       -0.5000       +3.9579    1    1         0
   251    1      -77.9423       +0.0000       +3.9894    1    1         0
   252    1      -77.9423       +0.9921       +3.8640    1    1         0
   253    1      -77.9423       +1.9219       +3.4959    1    1         0
   254    1      -77.9423       +2.7309       +2.9081    1    1         0
   255    1      -77.9423       +3.3683       +2.1376    1    1         0
   256    1      -77.9423       +3.7941       +1.2328    1    1         0
   257    1      -77.9423       +3.9815       +0.2505    1    1         0
   258    1      -77.9423       +3.9187       -0.7475    1    1         0
   259    1      -77.9423       +3.6097       -1.6986    1    1         0
   260    1      -77.9423       +3.0739       -2.5429    1    1         0
   261    1      -77.9423       +2.3449       -3.2275    1    1         0
   262    1      -77.9423       +1.4686       -3.7092    1    1         0
   263    1      -77.9423       +0.5000       -3.9579    1    1         0
   264    1      -77.9423       -0.5000       -3.9579    1    1         0
   265    1      -77.9423       -1.4686       -3.7092    1    1         0
   266    1      -77.9423       -2.3449       -3.2275    1    1         0
   267    1      -77.9423       -3.0739       -2.5429    1    1         0
   268    1      -77.9423       -3.6097       -1.6986    1    1         0
   269    1      -77.9423       -3.9187       -0.7475    1    1         0
   270    1      -77.9423       -3.9815       +0.2505    1    1         0
   271    1      -77.9423       -3.7941       +1.2328    1    1         0
   272    1      -77.9423       -3.3683       +2.1376    1    1         0
   273    1      -77.9423       -2.7309       +2.9081    1    1         0
   274    1      -77.9423       -1.9219       +3.4959    1    1         0
   275    1      -77.9423       -0.9921       +3.8640    1    1         0
   276    1      -77.0763       +0.5000       +3.9579    1    1         0
   277    1      -77.0763       +1.4686       +3.7092    1    1         0
   278    1      -77.0763       +2.3449       +3.2275    1    1         0
   279    1      -77.0763       +3.0739       +2.5429    1    1         0
   280    1      -77.0763       +3.6097       +1.6986    1    1         0
   281    1      -77.0763       +3.9187       +0.7475    1    1         0
   282    1      -77.0763       +3.9815       -0.2505    1    1         0
   283    1      -77.0763       +3.7941       -1.2328    1    1         0
   284    1      -77.0763       +3.3683       -2.1376    1    1         0
   285    1      -77.0763       +2.7309       -2.9081    1    1         0
   286    1      -77.0763       +1.9219       -3.4959    1    1         0
   287    1      -77.0763       +0.9921       -3.8640    1    1         0
   288    1      -77.0763       -0.0000       -3.9894    1    1         0
   289    1      -77.0763       -0.9921       -3.8640    1    1         0
   290    1      -77.0763       -1.9219       -3.4959    1    1         0
   291    1      -77.0763       -2.7309       -2.9081    1    1         0
   292    1      -77.0763       -3.3683       -2.1376    1    1         0
   293    1      -77.0763       -3.7941       -1.2328    1    1         0
   294    1      -77.0763       -3.9815       -0.2505    1    1         0
   295    1      -77.0763       -3.9187       +0.7475    1    1         0
   296    1      -77.0763       -3.6097       +1.6986    1    1         0
   297    1      -77.0763       -3.0739       +2.5429    1    1         0
   298    1      -77.0763       -2.3449       +3.2275    1    1         0
   299    1      -77.0763       -1.4686       +3.7092    1    1         0
   300    1      -77.0763       -0.5000       +3.9579    1    1         0
   301    1      -76.2102       +0.0000       +3.9894    1    1         0
   302    1      -76.2102       +0.9921       +3.8640    1    1         0
   303    1      -76.2102       +1.9219       +3.4959    1    1         0
   304    1      -76.2102       +2.7309       +2.9081    1    1         0
   305    1      -76.2102       +3.3683       +2.1376    1    1         0
   306    1      -76.2102       +3.7941       +1.2328    1    1         0
   307    1      -76.2102       +3.9815       +0.2505    1    1         0
   308    1      -76.2102       +3.9187       -0.7475    1    1         0
   309    1      -76.2102       +3.6097       -1.6986    1    1         0
   310    1      -76.2102       +3.0739       -2.5429    1    1         0
   311    1      -76.2102       +2.3449       -3.2275    1    1         0
   312    1      -76.2102       +1.4686       -3.7092    1    1         0
   313    1      -76.2102       +0.5000       -3.9579    1    1         0
   314    1      -76.2102       -0.5000       -3.9579    1    1         0
   315    1      -76.2102       -1.4686       -3.7092    1    1         0
   316    1      -76.2102       -2.3449       -3.2275    1    1         0
   317    1      -76.2102       -3.0739       -2.5429    1    1         0
   318    1      -76.2102       -3.6097       -1.6986    1    1         0
   319    1      -76.2102       -3.9187       -0.7475    1    1         0
   320    1      -76.2102       -3.9815       +0.2505    1    1         0
   321    1      -76.2102       -3.7941       +1.2328    1    1         0
   322    1      -76.2102       -3.3683       +2.1376    1    1         0
   323    1      -76.2102       -2.7309       +2.9081    1    1         0
   324    1      -76.2102       -1.9219       +3.4959    1    1         0
   325    1      -76.2102       -0.9921       +3.8640    1    1         0
   326    1      -75.3442       +0.5000       +3.9579    1    1         0
   327    1      -75.3442       +1.4686       +3.7092    1    1         0
   328    1      -75.3442       +2.3449       +3.2275    1    1         0
   329    1      -75.3442       +3.0739       +2.5429    1    1         0
   330    1      -75.3442       +3.6097       +1.6986    1    1         0
   331    1      -75.3442       +3.9187       +0.7475    1    1         0
   332    1      -75.3442       +3.9815       -0.2505    1    1         0
   333    1      -75.3442       +3.7941       -1.2328    1    1         0
   334    1      -75.3442       +3.3683       -2.1376    1    1         0
   335    1      -75.3442       +2.7309       -2.9081    1    1         0
   336    1      -75.3442       +1.9219       -3.4959    1    1         0
   337    1      -75.3442       +0.9921       -3.8640    1    1         0
   338    1      -75.3442       -0.0000       -3.9894    1    1         0
   339    1      -75.3442       -0.9921       -3.8640    1    1         0
   340    1      -75.3442       -1.9219       -3.4959    1    1         0
   341    1      -75.3442       -2.7309       -2.9081    1    1         0
   342    1      -75.3442       -3.3683       -2.1376    1    1         0
   343    1      -75.3442       -3.7941       -1.2328    1    1         0
   344    1      -75.3442       -3.9815       -0.2505    1    1         0
   345    1      -75.3442       -3.9187       +0.7475    1    1         0
   346    1      -75.3442       -3.6097       +1.6986    1    1         0
   347    1      -75.3442       -3.0739       +2.5429    1    1         0
   348    1      -75.3442       -2.3449       +3.2275    1    1         0
   349    1      -75.3442       -1.4686       +3.7092    1    1         0
   350    1      -75.3442       -0.5000       +3.9579    1    1         0
   351    1      -74.4782       +0.0000       +3.9894    1    1         0
   352    1      -74.4782       +0.9921       +3.8640    1    1         0
   353    1      -74.4782       +1.9219       +3.4959    1    1         0
   354    1      -74.4782       +2.7309       +2.9081    1    1         0
   355    1      -74.4782       +3.3683       +2.1376    1    1         0
   356    1      -74.4782       +3.7941       +1.2328    1    1         0
   357    1      -74.4782       +3.9815       +0.2505    1    1         0
   358    1      -74.4782       +3.9187       -0.7475    1    1         0
   359    1      -74.4782       +3.6097       -1.6986    1    1         0
   360    1      -74.4782       +3.0739       -2.5429    1    1         0
   361    1      -74.4782       +2.3449       -3.2275    1    1         0
   362    1      -74.4782       +1.4686       -3.7092    1    1         0
   363    1      -74.4782       +0.5000       -3.9579    1    1         0
   364    1      -74.4782       -0.5000       -3.9579    1    1         0
   365    1      -74.4782       -1.4686       -3.7092    1    1         0
   366    1      -74.4782       -2.3449       -3.2275    1    1         0
   367    1      -74.4782       -3.0739       -2.5429    1    1         0
   368    1      -74.4782       -3.6097       -1.6986    1    1         0
   369    1      -74.4782       -3.9187       -0.7475    1    1         0
   370    1      -74.4782       -3.9815       +0.2505    1    1         0
   371    1      -74.4782       -3.7941       +1.2328    1    1         0
   372    1      -74.4782       -3.3683       +2.1376    1    1         0
   373    1      -74.4782       -2.7309       +2.9081    1    1         0
   374    1      -74.4782       -1.9219       +3.4959    1    1         0
   375    1      -74.4782       -0.9921       +3.8640    1    1         0
   376    1      -73.6122       +0.5000       +3.9579    1    1         0
   377    1      -73.6122       +1.4686       +3.7092    1    1         0
   378    1      -73.6122       +2.3449       +3.2275    1    1         0
   379    1      -73.6122       +3.0739       +2.5429    1    1         0
   380    1      -73.6122       +3.6097       +1.6986    1    1         0
   381    1      -73.6122       +3.9187       +0.7475    1    1         0
   382    1      -73.6122       +3.9815       -0.2505    1    1         0
   383    1      -73.6122       +3.7941       -1.2328    1    1         0
   384    1      -73.6122       +3.3683       -2.1376    1    1         0
   385    1      -73.6122       +2.7309       -2.9081    1    1         0