LAMMPS (29 Aug 2024)
OMP_NUM_THREADS environment is not set. Defaulting to 1 thread. (src/comm.cpp:98)
  using 1 OpenMP thread(s) per MPI task
# Usage:
# lmp -var seed 1 -var halfL 30 -in -var duration 1000. -in in.lmp
# seed : seed for thermostat and initial velocities
# halfL : half of the length of the simulation box
# duration : simulation duration in simulation time units \tau

# parallelize in xy
processors * * 1

units      lj

# define simulation box
region box block -${halfL} ${halfL} -${halfL} ${halfL} -${halfL} ${halfL}
region box block -12 ${halfL} -${halfL} ${halfL} -${halfL} ${halfL}
region box block -12 12 -${halfL} ${halfL} -${halfL} ${halfL}
region box block -12 12 -12 ${halfL} -${halfL} ${halfL}
region box block -12 12 -12 12 -${halfL} ${halfL}
region box block -12 12 -12 12 -12 ${halfL}
region box block -12 12 -12 12 -12 12
boundary   p p p

# prepare for cooke lipid
atom_style angle
create_box 2 box  bond/types 1 angle/types 1 extra/bond/per/atom 3 extra/angle/per/atom 3 extra/special/per/atom 3
Created orthogonal box = (-12 -12 -12) to (12 12 12)
  1 by 1 by 1 MPI processor grid
mass * 1.0

# setup conservative neighbor lists
neighbor 1. bin
neigh_modify every 1 delay 1

# define interactions
variable hydro_w equal 1.5
variable two6 equal $(2^(1/6))
variable two6 equal 1.1224620483093730172
variable hh_sigma equal $(0.95*v_two6)
variable hh_sigma equal 1.0663389458939014354
variable tt_sigma equal $(v_two6)
variable tt_sigma equal 1.1224620483093699086
variable tt_rc equal $(v_two6+v_hydro_w)
variable tt_rc equal 2.6224620483093699086

special_bonds lj 0 1 1
Finding 1-2 1-3 1-4 neighbors ...
  special bond factors lj:    0        1        1       
  special bond factors coul:  0        0        0       
     0 = max # of 1-2 neighbors
     0 = max # of 1-3 neighbors
     0 = max # of 1-4 neighbors
     7 = max # of special neighbors
  special bonds CPU = 0.000 seconds
pair_style cosine/squared ${tt_rc}
pair_style cosine/squared 2.62246204830937
bond_style fene
angle_style harmonic

# 1 : head , 2 : tail
pair_coeff 1 1 1. ${hh_sigma} ${hh_sigma} wca
pair_coeff 1 1 1. 1.0663389458939 ${hh_sigma} wca
pair_coeff 1 1 1. 1.0663389458939 1.0663389458939 wca
WARNING: Cosine/squared set to WCA only (cutoff = sigma) (src/EXTRA-PAIR/pair_cosine_squared.cpp:158)
pair_coeff 1 2 1. ${hh_sigma} ${hh_sigma} wca
pair_coeff 1 2 1. 1.0663389458939 ${hh_sigma} wca
pair_coeff 1 2 1. 1.0663389458939 1.0663389458939 wca
WARNING: Cosine/squared set to WCA only (cutoff = sigma) (src/EXTRA-PAIR/pair_cosine_squared.cpp:158)
pair_coeff 2 2 1. ${tt_sigma} ${tt_rc} wca
pair_coeff 2 2 1. 1.12246204830937 ${tt_rc} wca
pair_coeff 2 2 1. 1.12246204830937 2.62246204830937 wca
bond_coeff 1 30.0 1.5 1.0 1.0
angle_coeff 1 5.0 180.0

# define Cooke lipid
molecule lipid lipid.txt
Read molecule template lipid:
# Cooke lipid
  1 molecules
  0 fragments
  3 atoms with max type 2
  2 bonds with max type 1
  1 angles with max type 1
  0 dihedrals with max type 0
  0 impropers with max type 0

# build bilayer
lattice custom 1. a1 1 0 0 a2 0 1 0 a3 0 0 1 origin 0 0 0. basis 0.5 0.5 0.5
Lattice spacing in x,y,z = 1 1 1
region upper_leaflet block EDGE EDGE EDGE EDGE 1.5 1.5 units box
create_atoms 0 region upper_leaflet mol lipid 1 rotate 0 1 0 0
Created 1728 atoms
  using lattice units in orthogonal box = (-12 -12 -12) to (12 12 12)
  create_atoms CPU = 0.000 seconds
region lower_leaflet block EDGE EDGE EDGE EDGE -1.5 -1.5
create_atoms 0 region lower_leaflet mol lipid 1 rotate 180 1 0 0
Created 1728 atoms
  using lattice units in orthogonal box = (-12 -12 -12) to (12 12 12)
  create_atoms CPU = 0.000 seconds

# write topology file for latter visualization
write_data topo.data
System init for write_data ...
Generated 0 of 1 mixed pair_coeff terms from geometric mixing rule
Neighbor list info ...
  update: every = 1 steps, delay = 1 steps, check = yes
  max neighbors/atom: 2000, page size: 100000
  master list distance cutoff = 3.622462
  ghost atom cutoff = 3.622462
  binsize = 1.811231, bins = 14 14 14
  1 neighbor lists, perpetual/occasional/extra = 1 0 0
  (1) pair cosine/squared, perpetual
      attributes: half, newton on
      pair build: half/bin/newton
      stencil: half/bin/3d
      bin: standard
WARNING: Not all mixed pair coeffs generated from mixing. Use write_data with 'pair ij' option to store all pair coeffs. (src/write_data.cpp:364)

# define ensemble

variable temperature equal 1.0

fix langevin all langevin ${temperature} ${temperature} 1.0 ${seed} zero yes
fix langevin all langevin 1 ${temperature} 1.0 ${seed} zero yes
fix langevin all langevin 1 1 1.0 ${seed} zero yes
fix langevin all langevin 1 1 1.0 1 zero yes
fix fNPH all nph x 0. 0. 10. y 0. 0. 10. couple xy dilate all

# thermalize
velocity all create ${temperature} ${seed}
velocity all create 1 ${seed}
velocity all create 1 1
timestep        0.01

# define output
thermo 100
variable lx equal lx
fix avg_lx all ave/time 1 100 100 v_lx mode scalar ave one
thermo_style custom step lx temp pe time cpu etotal nbuild ndanger fmax fnorm f_avg_lx ebond eangle epair pxx pyy pzz

dump dump all netcdf 1000 traj.nc x y z
dump_modify dump thermo yes

# run
run $(v_duration*100) # 100 steps = 1\tau
run 100000 
Generated 0 of 1 mixed pair_coeff terms from geometric mixing rule
Per MPI rank memory allocation (min/avg/max) = 6.625 | 6.625 | 6.625 Mbytes
   Step           Lx            Temp          PotEng          Time           CPU           TotEng       Nbuild      Ndanger        Fmax          Fnorm         f_avg_lx        E_bond        E_angle         E_pair          Pxx            Pyy            Pzz      
         0   24             1              8.0012826      0              0              9.5008486              0           0   75.28014       2455.0303      0              13.891867      0             -5.890584       2.6736786      2.6786802     -5.3920944    
       100   24.464703      1.0629938      7.5853638      1              0.24378008     9.1793931              7           0   178.97716      3236.0385      24.2276        13.822662      0.17926329    -6.4165612      0.3225168      0.25078795     0.21497737   
       200   24.74972       1.0043774      7.6156491      2              0.49433471     9.1217793             14           0   207.60949      3239.732       24.615195      13.832383      0.18290429    -6.3996386      0.12237665     0.19788812     0.028600989  
       300   24.9568        0.99349862     7.6325761      3              0.74900942     9.1223928             22           0   169.54845      3159.1543      24.86136       13.812075      0.19270165    -6.3722003      0.11014902     0.14563022     0.059247775  
       400   25.104787      0.98413693     7.6884226      4              0.99791137     9.1642008             29           0   155.41911      3126.2818      25.035277      13.815766      0.20206253    -6.3294055      0.05301667     0.12751152    -0.074740432  
       500   25.232679      0.98866551     7.726076       5              1.2443151      9.2086452             36           0   240.55682      3228.0497      25.16815       13.839669      0.20209336    -6.3156867      0.11539182     0.12597864     0.061985856  
       600   25.350031      0.99181567     7.6880921      6              1.4885794      9.1753851             43           0   238.21327      3097.4917      25.295425      13.824529      0.19592972    -6.3323665      0.032190995    0.060358834   -0.081407176  
       700   25.436813      0.98967997     7.7082598      7              1.736377       9.1923502             51           0   184.21499      3183.577       25.394103      13.825422      0.19830168    -6.3154636      0.10374607     0.044611629   -0.028875934  
       800   25.525826      1.0227284      7.7072823      8              1.9786402      9.2409311             58           0   217.68571      3115.8282      25.483089      13.822582      0.2010952     -6.3163952      0.010207116    0.0025886277  -0.078316733  
       900   25.608462      1.0057358      7.7799646      9              2.2195057      9.2881319             65           0   185.80034      3193.6461      25.567448      13.831387      0.22005215    -6.2714741      0.050554572   -0.0071054809   0.21818126   
      1000   25.68669       0.99641969     7.7841749      10             2.460067       9.278372              72           0   164.20402      3092.1133      25.648284      13.815108      0.22289398    -6.2538269      0.0053051259   0.02838171    -0.086288031  
      1100   25.76262       1.046717       7.8239925      11             2.7026412      9.3936136             80           0   159.29864      3042.5034      25.724216      13.805441      0.2183196     -6.1997682      0.037309644    0.0091134164  -0.18442836   
      1200   25.853884      1.0150714      7.8280061      12             2.9421812      9.3501727             87           0   199.9322       3070.2194      25.808234      13.808712      0.21871721    -6.1994228      0.011351917    0.012436298   -0.06212179   
      1300   25.929418      0.97940956     7.853166       13             3.1797513      9.3218552             94           0   224.44074      3120.3863      25.893687      13.826974      0.21509881    -6.1889072     -0.014402116   -0.028280658   -0.10228523   
      1400   25.972292      1.0005192      7.896407       14             3.4207617      9.3967516            101           0   172.31924      3166.8006      25.954056      13.8339        0.21484855    -6.1523411      0.028502676    0.067917949    0.13871748   
      1500   26.001919      1.0012423      7.8913585      15             3.6680731      9.3927873            109           0   236.74045      3096.3693      25.989506      13.822994      0.22391137    -6.1555468     -0.018984258   -0.052063868   -0.084816645  
      1600   26.021919      0.98157801     7.9025147      16             3.9117605      9.3744557            116           0   200.27201      3122.1655      26.009585      13.821534      0.2189505     -6.1379702     -0.0019891174   0.033279457   -0.0026827745 
      1700   26.060497      1.0034821      7.904524       17             4.151329       9.4093116            122           0   204.33008      3131.9692      26.041267      13.830512      0.23181036    -6.1577982      0.028899532    0.035346153    0.070443713  
      1800   26.096847      1.0010859      7.9169278      18             4.398587       9.4181222            130           0   165.76012      3177.4229      26.07938       13.835863      0.22005835    -6.1389938      0.047039937    0.021570342    0.042994244  
      1900   26.131632      1.0103182      7.8954068      19             4.6385368      9.4104455            137           0   170.11205      3108.0418      26.114149      13.809556      0.23490719    -6.149056       0.020014045    0.0092380593  -0.054496613  
      2000   26.167786      0.98368811     7.9284967      20             4.8812242      9.4036019            144           0   192.85916      3070.4689      26.150098      13.805149      0.2311513     -6.1078031      0.041327787   -0.0039823318  -0.012975212  
      2100   26.189384      0.97852983     7.9369447      21             5.1410503      9.4043147            151           0   208.68131      3065.8172      26.180691      13.813708      0.22760356    -6.1043671     -0.046010064   -0.056649669   -0.2092572    
      2200   26.188341      0.99529334     7.9560478      22             5.3757553      9.4485558            157           0   181.48034      3092.3107      26.189604      13.824801      0.24253477    -6.1112883     -0.0043852098  -0.050565053   -0.23019193   
      2300   26.19059       1.0005563      7.9927745      23             5.6155932      9.4931746            164           0   169.43548      3091.7431      26.188613      13.827034      0.22907231    -6.0633314     -0.0017077118   0.0016644658  -0.13381676   
      2400   26.210346      1.0202926      8.0100356      24             5.855287       9.5400316            171           0   177.40249      3186.3617      26.197545      13.828331      0.23814292    -6.0564381      0.07026161     0.019800431    0.10678385   
      2500   26.249748      0.98889895     7.9711158      25             6.1000468      9.454035             179           0   166.99857      3040.3992      26.230275      13.810721      0.22597617    -6.0655814     -0.037761904   -0.064999984   -0.18015958   
      2600   26.281175      0.98069779     7.9997157      26             6.3372678      9.4703367            186           0   215.10277      3105.0536      26.266256      13.823798      0.23710707    -6.0611891     -0.040506649   -0.073413283   -0.086482148  
      2700   26.287134      0.99319348     8.0271091      27             6.5735283      9.5164683            193           0   184.35922      3096.053       26.285328      13.822356      0.23943899    -6.0346855     -0.0033736646  -0.00055283136 -0.12027615   
      2800   26.284241      0.98237209     8.0028024      28             6.8142269      9.4759342            200           0   182.29498      3077.4395      26.286728      13.817078      0.23464099    -6.0489164     -0.041861421   -0.044797994   -0.033296694  
      2900   26.268585      0.99802401     7.9863908      29             7.0507513      9.4829936            207           0   160.32476      3047.8196      26.275367      13.817602      0.24474211    -6.0759532      0.011627247   -0.0020743704  -0.091383902  
      3000   26.282992      1.001339       7.9969898      30             7.2874759      9.4985636            214           0   188.7533       3037.872       26.273613      13.800364      0.23288753    -6.0362621      0.035199592    0.066909055    0.082928644  
      3100   26.315266      0.99607596     7.9882167      31             7.5245436      9.4818983            221           0   189.64219      3060.3078      26.298558      13.803368      0.23473297    -6.0498841     -0.013589333   -0.0085056273  -0.063429143  
      3200   26.346337      1.0140675      7.9698524      32             7.7617893      9.4905135            228           0   196.59057      3023.0999      26.330088      13.808001      0.22822634    -6.066375      -0.048577942   -0.031341305   -0.22662538   
      3300   26.383264      1.000733       8.0084734      33             7.9979163      9.5091386            235           0   202.05937      3148.5852      26.364514      13.820584      0.23825945    -6.0503703      0.0089692523  -0.055546713    0.0093651716 
      3400   26.419227      1.0157386      8.0133675      34             8.2351674      9.5365345            242           0   204.05377      3083.262       26.401533      13.817328      0.24322959    -6.0471902      0.0070574739  -0.014336928   -0.053255286  
      3500   26.451513      1.003258       8.0657449      35             8.4715077      9.5701965            249           0   187.09294      3109.3331      26.437076      13.829148      0.23595474    -5.9993574     -0.018109366   -0.016385612   -0.012920893  
      3600   26.463314      1.0072542      8.06654        36             8.7067225      9.5769841            256           0   223.32618      3141.6553      26.458786      13.826636      0.2450479     -6.0051443      0.0082425328  -0.00087319397  0.06872493   
      3700   26.478297      1.0229496      8.0609866      37             8.9435959      9.594967             263           0   192.93509      3187.3342      26.468363      13.819326      0.23201955    -5.9903593      0.011730753    0.10592715     0.17170447   
      3800   26.527416      1.0044359      8.0927409      38             9.1792744      9.5989587            270           0   188.78696      3103.8777      26.501132      13.822913      0.23929247    -5.9694649     -0.024024156    0.0055845132  -0.059123601  
      3900   26.588852      0.98463163     8.1445335      39             9.4195356      9.6210536            278           0   183.78332      3171.9479      26.558661      13.840165      0.25208165    -5.947713      -0.030687787    0.026547197   -0.035145052  
      4000   26.63457       0.99757215     8.1364137      40             9.6562501      9.632339             285           0   181.85697      3165.1909      26.614319      13.858374      0.24687853    -5.9688385     -0.070010203    0.039018481    0.036533114  
      4100   26.649596      1.0085993      8.1008186      41             9.8921171      9.6132798            292           0   185.79136      3122.6945      26.644501      13.825158      0.23383274    -5.958172      -0.016408695   -0.018445697    0.0889198    
      4200   26.653444      1.0142311      8.1009651      42             10.126909      9.6218716            299           0   166.58288      3111.8111      26.650701      13.813504      0.24003616    -5.9525748      0.036357004   -0.00033152549 -0.012296109  
      4300   26.658514      0.9987049      8.0808033      43             10.361165      9.5784272            306           0   184.57037      3120.1221      26.657223      13.820898      0.24204455    -5.9821394     -0.015014648    0.0004412667   0.016483637  
      4400   26.640293      1.0018568      8.148658       44             10.599242      9.6510084            314           0   193.62844      3102.2127      26.651336      13.822986      0.24521534    -5.9195432     -0.013224781   -0.029556033   -0.14474127   
      4500   26.602639      1.0114679      8.1422543      45             10.833998      9.6590172            321           0   199.14101      3147.9972      26.621794      13.847863      0.24022589    -5.9458344     -0.016355141   -0.030406686   -0.00057791334
      4600   26.537229      1.0033764      8.115718       46             11.07314       9.6203471            328           0   192.43985      3115.6059      26.573243      13.83219       0.23708576    -5.9535573      0.027135885   -0.0017794005  -0.068092039  
      4700   26.453649      1.0033471      8.1264702      47             11.317326      9.6310554            336           0   157.00593      3054.6794      26.494967      13.816591      0.25266286    -5.9427833      0.017305012    0.071801815   -0.037171882  
      4800   26.394604      1.0229996      8.1006597      48             11.552883      9.6347152            343           0   189.77637      3076.8352      26.421859      13.809395      0.24836344    -5.9570991      0.0008473121   0.025820032   -0.081060956  
      4900   26.35732       1.0344557      8.0695251      49             11.790232      9.6207596            350           0   198.82229      3070.5923      26.372216      13.813209      0.24807711    -5.991761       0.036734644    0.06027387    -0.066693028  
      5000   26.372511      1.0047098      8.0250725      50             12.027863      9.5317011            357           0   154.64789      3073.38        26.361584      13.809961      0.249995      -6.0348831     -0.0038314234   0.0055805934   0.0054613508 
      5100   26.417896      0.99313045     8.0256233      51             12.264091      9.5148879            364           0   242.94719      3071.8671      26.393206      13.821551      0.23816527    -6.0340934      0.041001685   -0.012031006    0.0049524044 
      5200   26.46778       1.0010585      8.0500836      52             12.499571      9.5512368            371           0   219.4131       3076.4876      26.446234      13.822216      0.24028395    -6.0124168      0.00036545676 -0.060367501   -0.12970709   
      5300   26.489502      0.99253742     8.0189888      53             12.737872      9.5073641            378           0   168.26577      3041.9713      26.479899      13.810614      0.24215643    -6.0337816     -0.073395954   -0.080195407   -0.059547234  
      5400   26.476074      1.0119494      8.044981       54             12.976974      9.5624659            385           0   154.35619      3039.8095      26.486357      13.808104      0.22613605    -5.9892594      0.0032792991  -0.00092988979 -0.029950385  
      5500   26.447902      0.99605222     8.0358246      55             13.216542      9.5294706            392           0   165.869        3084.8999      26.460278      13.813603      0.23787635    -6.0156551      0.0014796119   0.036084224   -0.031743665  
      5600   26.435272      0.98915236     8.0242751      56             13.457823      9.5075743            399           0   192.3466       3135.3548      26.441987      13.830255      0.25345663    -6.0594368     -0.078168058   -0.018762191    0.11067928   
      5700   26.421878      0.99569387     8.0042462      57             13.697824      9.4973548            406           0   182.54774      3104.5026      26.428293      13.821987      0.23590668    -6.0536479     -0.012009825   -0.036098756   -0.036619372  
      5800   26.413265      0.99390273     7.9993453      58             13.937511      9.489768             413           0   181.74608      3088.0308      26.416686      13.818686      0.23488615    -6.0542274     -0.013919404   -0.0065498739   0.11470563   
      5900   26.403773      0.99295194     8.0369887      59             14.234683      9.5259857            420           0   189.57493      3123.3241      26.409251      13.826061      0.23496813    -6.0240403     -0.015878824    0.035661776    0.077137953  
      6000   26.387829      1.0021229      7.9878535      60             14.477245      9.490603             427           0   179.86715      3061.113       26.396006      13.823691      0.21752156    -6.0533592     -0.019907114   -0.032826454   -0.10813657   
      6100   26.376175      0.99799543     8.026766       61             14.743838      9.523326             434           0   260.91231      3136.9799      26.380675      13.822714      0.23117524    -6.0271236      0.0061235915   0.03762907     0.043136418  
      6200   26.366392      1.0140439      8.0101193      62             14.980655      9.5307451            441           0   234.22775      3103.6693      26.370401      13.818976      0.23242636    -6.0412835      0.0066647305   0.013751899   -0.0035022508 
      6300   26.374882      1.0058456      8.037131       63             15.218303      9.5454628            448           0   194.60499      3199.8476      26.369369      13.840085      0.22776049    -6.0307145      0.011191003   -0.015260112    0.089566656  
      6400   26.382581      0.98660026     8.0329368      64             15.458473      9.512409             455           0   190.65216      3162.0339      26.379515      13.8281        0.24328483    -6.0384485      0.048696692   -0.023949952    0.095670363  
      6500   26.380002      0.99075074     8.0140111      65             15.693036      9.4997072            461           0   263.31043      3130.3825      26.383158      13.820825      0.23092324    -6.0377375     -0.018196306   -0.0007230351  -0.021837695  
      6600   26.358048      1.0065609      8.0191401      66             15.937379      9.5285445            469           0   199.88798      3148.6091      26.369985      13.826414      0.224439      -6.0317129      0.021190494    0.013533599    0.045003276  
      6700   26.334034      0.98875069     8.0304226      67             16.176003      9.5131195            476           0   197.11004      3069.0931      26.345567      13.817497      0.24295425    -6.0300291      0.0085849479  -0.05077732    -0.039152065  
      6800   26.306971      0.99947629     8.0490117      68             16.415388      9.5477923            483           0   182.63931      3121.5799      26.31954       13.820442      0.24569746    -6.0171274     -0.013037928    0.011037343   -0.16290532   
      6900   26.291377      1.0013474      8.0592208      69             16.653149      9.5608072            490           0   200.21721      3161.5267      26.298472      13.843057      0.2294992     -6.0133359     -0.00088067581 -0.032157273    0.023863584  
      7000   26.277586      1.0241654      8.0367271      70             16.894323      9.5725306            497           0   160.45236      3079.8962      26.283579      13.808929      0.23976756    -6.0119697      0.050877737    0.020318664    0.084744181  
      7100   26.298         1.021809       8.0092686      71             17.13665       9.5415386            504           0   187.14661      3085.2585      26.283252      13.820171      0.23985673    -6.050759      -0.054499733    0.032513788   -0.025221009  
      7200   26.357048      0.98552587     8.0584258      72             17.380884      9.5362869            512           0   171.51099      3145.5108      26.324864      13.813758      0.24739015    -6.0027222      0.036486817    0.077876257   -0.015847642  
      7300   26.448676      1.0256179      8.057233       73             17.651675      9.5952146            519           0   228.77173      3092.3224      26.402375      13.821877      0.23968936    -6.0043329     -0.0060257981  -0.025037053   -0.047671849  
      7400   26.54998       1.0130372      8.1124076      74             17.891392      9.6315238            526           0   185.54916      3075.8401      26.498989      13.820933      0.25264189    -5.9611671      0.011443026    0.017780078   -0.024443334  
      7500   26.653186      1.0217288      8.0715143      75             18.134604      9.6036641            534           0   221.99194      3055.6405      26.603944      13.794454      0.24025817    -5.963198      -0.044358184   -0.051048882    0.031657658  
      7600   26.709881      1.0004808      8.1383054      76             18.370589      9.6385924            541           0   228.76407      3085.4254      26.684486      13.832722      0.25706328    -5.9514796     -0.066974232   -0.067189549   -0.19381649   
      7700   26.740816      1.0299551      8.1260146      77             18.613275      9.6705002            549           0   204.45949      3047.6134      26.7261        13.822141      0.23957568    -5.935702      -0.043869242   -0.072391452   -0.10884397   
      7800   26.769137      1.0355931      8.1118427      78             18.848537      9.6647829            556           0   247.92917      3116.8078      26.754533      13.823694      0.24274558    -5.9545973      0.041209352   -0.010599887   -0.034803373  
      7900   26.80037       0.99373804     8.0999223      79             19.082494      9.590098             563           0   200.21324      3066.5231      26.785355      13.810875      0.23650708    -5.9474597      0.034637385   -0.049680981    0.0073930083 
      8000   26.814952      0.9817943      8.1024291      80             19.314106      9.5746944            569           0   182.87449      3107.5561      26.810419      13.822999      0.25288242    -5.973452       0.00083679842 -0.044614569    0.07815676   
      8100   26.794477      0.98888056     8.1056468      81             19.551156      9.5885385            576           0   188.07993      3075.9895      26.80815       13.820982      0.25664155    -5.971977      -0.04614806    -0.053273327    0.12982998   
      8200   26.73165       0.97917508     8.1287923      82             19.784677      9.5971299            583           0   183.64855      3136.2924      26.765114      13.825573      0.24419782    -5.9409789     -0.020048748    0.024984493    0.027926766  
      8300   26.643482      0.99452601     8.0649786      83             20.017567      9.5563359            590           0   224.78945      3058.7207      26.689081      13.808096      0.25725443    -6.0003719     -0.064505692   -0.026729254   -0.0081079416 
      8400   26.543065      0.99118326     8.0528996      84             20.255716      9.5392443            598           0   195.30864      3038.0284      26.59189       13.812688      0.24117926    -6.0009673      0.021327685   -0.016107956   -0.016585531  
      8500   26.454898      0.97432695     8.0716967      85             20.49689       9.5327642            605           0   185.5173       3079.7429      26.497191      13.820119      0.25224714    -6.0006699     -0.016686604   -0.0098966682  -0.030075617  
      8600   26.389133      1.0082265      8.0327224      86             20.741597      9.5446245            613           0   193.76047      3163.731       26.419482      13.826207      0.24291225    -6.0363964     -0.025443354    0.034223935    0.013151522  
      8700   26.356708      0.97970665     8.0484532      87             20.979588      9.517588             620           0   192.77679      3109.1574      26.369705      13.826244      0.25033445    -6.0281256      0.054132583    0.0065602371   0.068636199  
      8800   26.341233      0.99529959     8.05032        88             21.219276      9.5428374            627           0   252.851        3180.2387      26.349222      13.820148      0.24433582    -6.014164       0.034681859   -0.0096545331   0.028305101  
      8900   26.335542      1.0043439      8.0534511      89             21.459368      9.559531             634           0   179.86616      3071.9871      26.336682      13.823679      0.23183643    -6.002064      -0.042255655   -0.012408369   -0.09938814   
      9000   26.335712      1.0056456      8.0678521      90             21.697998      9.5758841            641           0   156.21543      3078.8494      26.335049      13.833231      0.237908      -6.0032867      0.042447822    0.022037144   -0.091524523  
      9100   26.36072       1.0051161      8.0894313      91             21.933571      9.5966691            648           0   170.44051      3146.5208      26.345948      13.838214      0.23339965    -5.9821819     -0.030334691    0.0082065151  -0.053047992  
      9200   26.382089      1.0456384      8.0704467      92             22.172698      9.6384504            656           0   192.32044      3140.5675      26.371678      13.839991      0.24808297    -6.017627       0.026401559   -0.021017806    0.066545023  
      9300   26.409709      1.0045958      8.1142727      93             22.409087      9.6207303            663           0   189.99676      3168.111       26.395541      13.831181      0.24933876    -5.9662474      0.015183688    0.039505704    0.0059116041 
      9400   26.441513      1.008369       8.040891       94             22.646456      9.5530068            670           0   173.58008      3110.4085      26.426837      13.834268      0.23598325    -6.02936       -0.0046498822  -0.0010016979  -0.0121024    
      9500   26.465419      0.98271306     8.0790233      95             22.879219      9.5526664            676           0   185.63867      3035.8792      26.454783      13.803359      0.24567741    -5.9700129      0.007047609    0.004143637   -0.10972753   
      9600   26.487993      1.0046154      8.0315479      96             23.12057       9.5380349            684           0   185.19962      3006.5408      26.476817      13.78955       0.23597667    -5.9939787     -0.02096063    -0.044337005   -0.14152075   
      9700   26.502903      0.99087715     8.0567335      97             23.355811      9.5426191            691           0   199.9789       3125.1436      26.49675       13.840056      0.22825357    -6.0115764     -0.062250214   -0.033145574    0.021110711  
      9800   26.493624      1.0002949      8.0526174      98             23.589183      9.5526256            698           0   208.35759      3074.3172      26.499048      13.808838      0.23769263    -5.9939131     -0.032063444   -0.042652066   -0.086259088  
      9900   26.468928      1.0023266      8.0738642      99             23.825033      9.576919             705           0   194.77319      3091.3806      26.482037      13.823355      0.22990359    -5.9793943     -0.066174123   -0.020499153   -0.16002605   
     10000   26.438174      1.0000424      8.0596812      100            24.060071      9.5593108            712           0   149.52996      3073.512       26.452705      13.817482      0.23859989    -5.9964004     -0.0090660593  -0.023734057   -0.1043449    
     10100   26.417316      1.0137272      8.0481693      101            24.293525      9.5683201            719           0   212.65181      3135.0609      26.424307      13.834965      0.23769046    -6.0244866      0.033832681    0.0033516185  -0.018000581  
     10200   26.422873      0.98629427     8.0338731      102            24.526802      9.5128864            726           0   157.64557      3091.0932      26.419652      13.824928      0.24880927    -6.0398641     -0.10399545    -0.071603076   -0.075897215  
     10300   26.410166      0.98811379     8.0604421      103            24.765545      9.5421839            734           0   194.54359      3112.6369      26.416461      13.825888      0.24477223    -6.0102184      0.031897812    0.02544719    -0.10972328   
     10400   26.413969      1.0080692      8.0435426      104            25.000784      9.5552089            741           0   156.4984       3102.1698      26.410803      13.821946      0.2387658     -6.0171692      0.0041277657  -0.0063794844  -0.033237724  
     10500   26.418792      0.99522384     8.0351221      105            25.238372      9.5275259            748           0   175.91599      3107.0437      26.416051      13.819032      0.24675571    -6.0306655     -0.042867471   -0.0093657294  -0.1217983    
     10600   26.439789      1.0018052      8.0665491      106            25.476865      9.5688221            755           0   185.21747      3102.4751      26.426447      13.846098      0.23026315    -6.0098124      0.046898994   -0.013565168   -0.055836564  
     10700   26.479624      1.0121926      8.0587595      107            25.738728      9.5766092            762           0   222.97219      3095.6273      26.461058      13.824196      0.24417764    -6.0096146     -0.060838413    0.065174782    0.0067875625 
     10800   26.508652      0.98801222     8.0543818      108            25.977547      9.5359714            769           0   163.15887      3102.7853      26.496259      13.816638      0.23665436    -5.9989101     -0.012133835   -0.0094861403  -0.066722768  
     10900   26.509246      0.98806896     8.0778306      109            26.213899      9.5595052            776           0   180.96953      3084.5298      26.510892      13.807443      0.23978617    -5.9693982      0.0096286586   0.02710654    -0.12151998   
     11000   26.49291       1.0009701      8.0540978      110            26.470403      9.5551185            783           0   173.4352       3089.7444      26.50242       13.823152      0.23487006    -6.0039241     -0.048773841   -0.015080606   -0.041476373  
     11100   26.450154      0.99472655     8.049792       111            26.705123      9.5414501            790           0   203.5937       3081.135       26.471975      13.815456      0.25815225    -6.0238166      0.010997078    0.026591482   -0.052376876  
     11200   26.403451      0.99526649     8.0758019      112            26.941137      9.5682697            797           0   200.4968       3171.4898      26.426199      13.825651      0.22798303    -5.9778318      0.061882724   -0.020377845    0.048644404  
     11300   26.363542      1.004313       8.0284741      113            27.175905      9.5345077            804           0   199.20245      3127.8622      26.382066      13.822133      0.22674981    -6.0204083      0.0034564753  -0.0022624282   0.076719921  
     11400   26.335328      1.0193027      8.0249008      114            27.413222      9.5534124            812           0   175.47067      3147.988       26.348083      13.827216      0.22755533    -6.0298706     -0.012651129    0.04592845    -0.032669235  
     11500   26.330235      1.0056211      8.0359996      115            27.651169      9.5439948            819           0   201.86665      3127.219       26.330444      13.819477      0.25006787    -6.0335449      0.033099902    0.035633392    0.15163904   
     11600   26.361335      0.99401945     8.0598577      116            27.887511      9.5504554            826           0   217.04223      3154.3702      26.344581      13.828882      0.22884447    -5.9978683      0.014810676    0.057562182    0.064741917  
     11700   26.399212      0.99340919     8.0501425      117            28.126771      9.5398251            834           0   213.77681      3068.7501      26.379332      13.815079      0.23823118    -6.003168      -0.057067167    0.020558898   -0.033742     
     11800   26.443369      0.96945099     8.0344991      118            28.360813      9.4882548            840           0   197.8722       3102.2755      26.421748      13.808239      0.22929086    -6.0030305      0.031418587    0.020614867    0.037477161  
     11900   26.480209      0.9860194      8.0168171      119            28.593902      9.4954182            847           0   158.08114      3059.3454      26.464386      13.809903      0.24124638    -6.0343327     -0.0060065509   0.021667256    0.059218193  
     12000   26.505404      0.99665607     8.0593324      120            28.825523      9.5538839            854           0   179.37125      3129.1579      26.492822      13.827324      0.24427175    -6.0122636      0.015698583   -0.0055951562  -0.011304867  
     12100   26.54116       1.0039885      8.0530592      121            29.058516      9.5586062            861           0   160.04319      3118.4449      26.522424      13.816546      0.24578057    -6.0092672     -0.041835952    0.0098079495  -0.090168938  
     12200   26.580293      0.9842669      8.0559112      122            29.288356      9.5318844            868           0   212.91694      3118.8924      26.562094      13.821995      0.23758855    -6.0036722     -0.041899507   -0.075553204   -0.097315541  
     12300   26.597471      1.0135731      8.0604935      123            29.51759       9.5804133            875           0   202.21255      3130.5789      26.58904       13.820503      0.23664702    -5.9966562     -0.019268917   -0.0029221555  -0.014347441  
     12400   26.617555      1.0122866      8.1051672      124            29.748534      9.6231577            882           0   177.32946      3117.9507      26.607046      13.821691      0.25030318    -5.9668271      0.0077583998  -0.015670964    0.00182444   
     12500   26.645715      1.01792        8.1205318      125            29.981635      9.6469701            889           0   187.79131      3178.1551      26.631287      13.841852      0.25760993    -5.9789304      0.01702236    -0.035215854    0.051328421  
     12600   26.66015       1.0071105      8.088736       126            30.222848      9.5989645            897           0   207.59967      3097.2373      26.655942      13.834713      0.24390652    -5.9898839      0.0094085024   0.034340182   -0.0605701    
     12700   26.663926      0.99066118     8.1113736      127            30.459439      9.5969354            904           0   213.42931      3090.4058      26.662325      13.829652      0.24687855    -5.9651575     -0.018123376   -0.019373934    0.092218796  
     12800   26.650117      0.98690368     8.0924949      128            30.699862      9.5724221            912           0   245.95059      3084.2142      26.659779      13.819686      0.25272075    -5.9799121     -0.026546595   -0.050609451   -0.070080882  
     12900   26.590633      1.003745       8.081086       129            30.93379       9.5862678            919           0   176.14605      3131.7827      26.625046      13.824271      0.24919941    -5.9923848     -0.043335521   -0.022135488    0.0049717876 
     13000   26.483711      1.0045606      8.053612       130            31.170519      9.5600169            926           0   182.34382      3132.1635      26.538678      13.827864      0.22622553    -6.0004773      0.035702202    0.034450889    0.12972705   
     13100   26.371768      1.018999       8.0341873      131            31.408277      9.5622436            933           0   290.20439      3184.5087      26.425564      13.828886      0.24892676    -6.0436251      0.087716282    0.016985133    0.010857755  
     13200   26.298543      1.0073647      8.0347032      132            31.650966      9.545313             941           0   215.4611       3219.0028      26.331558      13.853605      0.23936112    -6.0582627      0.050235931    0.0057960193  -0.025943793  
     13300   26.256426      1.0048664      7.9749172      133            31.890526      9.4817806            948           0   182.8839       3082.0466      26.274679      13.825805      0.24321312    -6.0941011      0.011914053   -0.015409724   -0.051721879  
     13400   26.233774      1.026204       7.9665861      134            32.126662      9.5054468            955           0   182.99422      3096.3789      26.2442        13.825073      0.22365297    -6.0821394     -0.0037578363   0.055141577   -0.097764463  
     13500   26.24039       1.006353       8.0081868      135            32.364183      9.5172795            962           0   184.36092      3139.9463      26.23377       13.833142      0.23155537    -6.0565105      0.053453686    0.034813266   -0.009844562  
     13600   26.290936      1.013847       7.9922854      136            32.602116      9.5126159            969           0   198.91359      3100.7226      26.263885      13.824206      0.24371275    -6.0756329      0.029433583    0.016623417    0.039455349  
     13700   26.352274      0.98010054     8.0024859      137            32.836687      9.4722113            976           0   174.54949      3082.1163      26.323795      13.805336      0.22381781    -6.0266677      0.018356072   -0.026343097   -0.034132692  
     13800   26.383971      1.0015103      7.9724273      138            33.076103      9.4742581            984           0   176.98991      3080.099       26.369028      13.80467       0.23280862    -6.065051       0.019194635    0.013742609    0.086198514  
     13900   26.41558       0.99638882     8.0396512      139            33.310355      9.533802             991           0   172.34301      3077.7146      26.401772      13.821304      0.23794652    -6.0195991     -0.0074031297  -0.014974261   -0.1889118    
     14000   26.431892      1.0028881      8.0164053      140            33.547503      9.5203021            998           0   185.13208      3061.5189      26.422421      13.817915      0.23421723    -6.0357272     -0.016267015    0.034233227   -0.045879185  
     14100   26.457192      0.99487879     7.9813504      141            33.78698       9.4732367           1006           0   203.19621      3098.7165      26.447098      13.818051      0.2384072     -6.0751083     -0.014744233    0.0018026445  -0.022885336  
     14200   26.45339       0.99607761     8.0119819      142            34.024515      9.505666            1013           0   193.44336      3108.3444      26.458579      13.825773      0.23788454    -6.0516759      0.030677855   -0.0160333      0.069580052  
     14300   26.426043      1.0084811      7.9941756      143            34.258261      9.5064595           1020           0   163.29461      3038.007       26.441725      13.819671      0.23542314    -6.0609184     -0.033556182   -0.047960037   -0.01553574   
     14400   26.377918      1.0007913      8.0050865      144            34.493255      9.5058391           1027           0   172.99139      3099.7438      26.402283      13.822945      0.23144454    -6.0493031      0.017970521    0.0025793811  -0.016114149  
     14500   26.341883      0.99101356     8.0252784      145            34.728494      9.5113686           1034           0   197.46494      3143.5133      26.356712      13.829041      0.24702997    -6.0507922      0.092292795   -0.00055790346 -0.042809018  
     14600   26.337801      1.0066274      7.9936981      146            34.982709      9.5032022           1041           0   170.68684      3154.0122      26.33758       13.813183      0.22732844    -6.0468132     -0.0071677521   0.054047575    0.041888284  
     14700   26.359521      0.97893572     7.9861489      147            35.219415      9.4541276           1048           0   182.49092      3065.3094      26.345919      13.810447      0.22767387    -6.0519721     -0.010483786   -0.01716937    -0.026871636  
     14800   26.388883      0.99765757     7.9682442      148            35.456772      9.4642975           1055           0   180.89563      3048.9831      26.372929      13.813396      0.2331365     -6.078288      -0.022122041    0.015819674   -0.028168663  
     14900   26.441496      0.99356324     8.0423457      149            35.696262      9.5322593           1063           0   179.35125      3124.501       26.414245      13.825421      0.24035082    -6.0234265      0.023432266   -0.017421327   -0.059573273  
     15000   26.484391      0.9830117      8.0549507      150            35.929893      9.5290416           1070           0   217.4851       3141.4667      26.465753      13.823282      0.23608522    -6.004417      -0.046897568   -0.037448725   -0.00048088296
     15100   26.505379      0.99494612     8.0588796      151            36.164704      9.5508669           1077           0   191.23997      3102.4405      26.495095      13.828499      0.25471391    -6.0243329      0.0060194575   0.041612348   -0.072290171  
     15200   26.549517      1.0251045      8.0403343      152            36.401796      9.5775461           1084           0   215.98133      3099.9534      26.525556      13.817591      0.22796067    -6.0052171      0.022772946   -0.017388371    0.072959946  
     15300   26.580798      0.99087626     8.0747435      153            36.634258      9.5606278           1091           0   199.31909      3115.6992      26.569445      13.817997      0.2362028     -5.9794563      0.078924885    0.035770197    0.10623664   
     15400   26.575945      0.98612098     8.0506891      154            36.871172      9.5294426           1099           0   188.2178       3093.2871      26.582675      13.812777      0.25338864    -6.0154764     -0.050838452    0.020452092    0.061819343  
     15500   26.530751      1.0005076      8.0262842      155            37.106701      9.5266113           1106           0   183.25729      3083.5659      26.554781      13.824435      0.24657723    -6.0447279     -0.039975398   -0.019082013   -0.0031915061 
     15600   26.465641      1.0457904      7.9998258      156            37.341851      9.5680575           1113           0   172.02021      3055.4137      26.501549      13.807889      0.2348724     -6.0429356      0.020651948    0.03650695    -0.017869543  
     15700   26.402695      0.99953868     8.0305576      157            37.575777      9.5294318           1120           0   161.34819      3109.1796      26.432697      13.817509      0.2366549     -6.0236065      0.022557499   -0.0037223969   0.11619026   
     15800   26.328594      1.0287211      8.001232       158            37.81316       9.5438672           1127           0   204.11168      3098.0694      26.366378      13.8163        0.23053321    -6.0456013     -0.039656294    0.0064758816  -0.06106249   
     15900   26.278126      1.005169       8.0521384      159            38.051555      9.5594557           1134           0   192.3806       3134.1761      26.300017      13.832704      0.2337806     -6.0143466     -0.029459541    0.046761357   -0.11418101   
     16000   26.24805       0.99860198     8.0179897      160            38.292144      9.5154592           1141           0   239.74395      3164.5278      26.260541      13.834593      0.24166318    -6.058266       0.014150613   -0.042010178    0.065498941  
     16100   26.223007      1.0014857      7.9446748      161            38.533525      9.4464686           1148           0   193.5846       3116.3274      26.234148      13.809442      0.22530438    -6.0900712      0.067791155    0.038505268    0.13312697   
     16200   26.216454      0.99780914     7.968983       162            38.773767      9.4652637           1155           0   208.96107      3088.8237      26.219597      13.801774      0.23828399    -6.0710753      0.069641543    0.039715849   -2.4681403e-05
     16300   26.218667      0.98620062     7.9588203      163            39.010087      9.4376932           1162           0   198.7776       3111.0523      26.215962      13.818627      0.23324174    -6.0930486     -0.013940389   -0.0042060591  -0.022396916  
     16400   26.239592      0.99694172     7.9470844      164            39.255685      9.4420643           1170           0   187.50404      3066.9055      26.227627      13.81906       0.24904484    -6.1210204      0.021215642   -0.014675743    0.044323542  
     16500   26.291409      0.98874367     7.9649377      165            39.493739      9.447624            1177           0   178.47586      3034.6164      26.263271      13.801523      0.24288702    -6.0794725      0.022297543   -0.022249233   -0.04836258   
     16600   26.351625      1.009677       8.0152207      166            39.730188      9.5292979           1184           0   170.81675      3093.1365      26.321833      13.815303      0.22662257    -6.0267047     -0.014737256    0.052177192    0.006263419  
     16700   26.406282      0.99221823     8.0557329      167            39.96957       9.5436295           1191           0   157.21903      3143.0077      26.379674      13.815537      0.23655133    -5.9963559      0.050470876    0.020833909    0.030771386  
     16800   26.452503      0.96925411     8.0027449      168            40.206293      9.4562053           1198           0   193.62245      3057.892       26.432792      13.81148       0.23857595    -6.0473115     -0.015363159   -0.027756957   -0.04037903   
     16900   26.471663      1.0022322      8.0120111      169            40.443736      9.5149243           1205           0   152.64768      3041.5352      26.463091      13.814932      0.23393345    -6.0368541     -0.034479508   -0.044791631   -0.030538767  
     17000   26.468388      1.0051519      8.0186623      170            40.683051      9.5259539           1212           0   217.98545      3113.5573      26.472163      13.827023      0.22649494    -6.0348558     -0.017105846    0.0047280023  -0.037687852  
     17100   26.428856      0.98657118     8.0283487      171            40.918914      9.5077773           1219           0   151.44235      3099.0846      26.451547      13.832196      0.24046006    -6.0443077      0.011338873   -0.011416397   -0.018944991  
     17200   26.37449       0.98074027     8.0075879      172            41.15827       9.4782726           1226           0   199.04863      3060.3191      26.402312      13.811738      0.22853289    -6.0326835     -0.069804045   -0.035114781   -0.17498475   
     17300   26.294616      0.97586349     8.0229134      173            41.393897      9.4862851           1233           0   231.20261      3074.7293      26.334001      13.821601      0.23136948    -6.0300568      0.051266608    0.045807117   -0.0817636    
     17400   26.238188      1.0010759      7.9640159      174            41.635043      9.4651953           1241           0   172.61466      3013.3542      26.263204      13.798987      0.23208254    -6.0670539     -0.025284162    0.0053106901  -0.044815842  
     17500   26.193593      1.0199725      7.986537       175            41.876276      9.5160531           1248           0   199.96731      3173.799       26.213722      13.81886       0.24312303    -6.0754456     -0.0043698011   0.042661786    0.13246376   
     17600   26.191594      0.99140879     7.9943272      176            42.112168      9.4810101           1255           0   202.74977      3142.9372      26.18933       13.81891       0.22833791    -6.0529204      0.0503054      0.0019748864  -0.061835486  
     17700   26.220348      0.98991772     7.9781921      177            42.348449      9.462639            1262           0   169.58237      3150.3405      26.203607      13.835677      0.23400683    -6.0914915      0.0035655321   0.012197919   -0.0018809339 
     17800   26.276295      1.0022808      8.0175009      178            42.587586      9.520487            1269           0   237.64799      3161.881       26.24674       13.828073      0.2394012     -6.0499731     -0.020937713    0.096397448    0.050265404  
     17900   26.361525      1.0120067      8.0100102      179            42.826685      9.5275811           1277           0   217.18409      3103.625       26.318507      13.802134      0.24300725    -6.0351311     -0.0676972     -0.039900509    0.041168514  
     18000   26.435917      1.0054993      8.0626046      180            43.063986      9.570417            1284           0   159.34448      3083.0891      26.400321      13.808972      0.23702027    -5.9833873     -0.0090176058   0.008455347    0.1348896    
     18100   26.489289      0.99551838     8.1337143      181            43.299247      9.6265598           1291           0   159.67222      3105.1469      26.463977      13.83214       0.25309175    -5.951518       0.016621098   -0.025190416   -0.087252274  
     18200   26.539224      0.99135004     8.0633068      182            43.533042      9.5499016           1298           0   185.06756      3166.0308      26.514556      13.833336      0.24533617    -6.0153656     -0.0084141221  -0.042834318    0.021193975  
     18300   26.568526      0.99776431     8.038562       183            43.772946      9.5347754           1306           0   233.80707      3107.4785      26.557119      13.82328       0.235012      -6.0197298     -0.02326854    -0.018196162    0.10133432   
     18400   26.577207      1.0110102      8.0461331      184            44.011654      9.5622096           1314           0   170.92176      3080.5679      26.57472       13.826528      0.23930979    -6.0197048     -0.015079159   -0.0067246459   0.1127192    
     18500   26.562624      1.0256077      8.0219824      185            44.242729      9.5599488           1320           0   187.13538      3112.1921      26.572335      13.830526      0.22491361    -6.0334574     -0.0080063216  -0.011651942    0.018696934  
     18600   26.533027      0.99848051     8.0640622      186            44.479901      9.5613496           1327           0   204.23028      3123.7804      26.547886      13.820761      0.24142302    -5.9981219     -0.023976221    0.065938727    0.0056149789 
     18700   26.490516      1.0098987      8.0252879      187            44.72005       9.5396975           1334           0   198.68027      3060.468       26.51435       13.82528       0.2335539     -6.033546      -0.0049887038   0.00072427462 -0.003539045  
     18800   26.437364      1.001285       8.0204069      188            44.956796      9.5218999           1341           0   216.12913      3094.4451      26.462823      13.820093      0.24243834    -6.0421243      0.012208762    0.012933246   -0.0090995476 
     18900   26.389716      1.0235845      8.0097908      189            45.196937      9.5447233           1349           0   181.2059       3081.4535      26.413516      13.815496      0.23321032    -6.0389153     -0.019903178   -0.02055823     0.0074440688 
     19000   26.347808      1.0208928      7.9916504      190            45.433949      9.5225465           1356           0   201.48195      3084.3808      26.366122      13.808457      0.22342564    -6.0402323      0.019415485    0.011287046    0.015077165  
     19100   26.32706       1.013809       8.0281488      191            45.674012      9.5484224           1363           0   183.2735       3011.3594      26.336088      13.812895      0.23423632    -6.0189821      0.011731477   -0.024844346   -0.11965821   
     19200   26.331049      1.0109176      8.0492358      192            45.91067       9.5651734           1370           0   187.65069      3116.2316      26.326267      13.831974      0.23704012    -6.0197783     -0.045516947    0.026926239    0.028474643  
     19300   26.352116      1.0002249      8.035394       193            46.151922      9.5352973           1377           0   176.4873       3111.5012      26.341052      13.827931      0.22972289    -6.0222601     -0.007969294   -0.0019908685  -0.1528527    
     19400   26.36774       1.000118       8.0395742      194            46.386576      9.5393171           1384           0   199.29373      3130.802       26.362643      13.827501      0.23787241    -6.0257991     -0.043089351   -0.030417036   -0.051867193  
     19500   26.372677      0.98620299     8.0307264      195            46.620831      9.5096028           1391           0   220.35077      3178.1517      26.369753      13.829161      0.23312706    -6.0315616      0.068444484    0.026590894    0.025471042  
     19600   26.380526      1.0130158      8.0061416      196            46.861361      9.5252256           1398           0   184.98575      3101.279       26.376744      13.819079      0.24002828    -6.0529661     -0.017765944    0.044921456    0.043195572  
     19700   26.415431      0.99754831     8.0129701      197            47.097011      9.5088596           1405           0   188.11506      3086.0833      26.395399      13.827452      0.23941957    -6.0539015     -0.020555542   -0.021035183   -0.064084353  
     19800   26.459708      0.9948035      8.0390817      198            47.337892      9.5308552           1413           0   214.42132      3098.0955      26.437694      13.81131       0.23924032    -6.0114684      0.020020562   -0.0043649239  -0.071277236  
     19900   26.517425      0.99091757     8.0334023      199            47.572603      9.5193485           1420           0   168.28154      3033.787       26.487408      13.80756       0.24179561    -6.0159533     -0.069225857    0.0026018351  -0.17814158   
     20000   26.563437      0.98135635     8.0286284      200            47.809966      9.500237            1428           0   211.74471      3035.7737      26.542652      13.812537      0.23623044    -6.0201388     -0.037392005   -0.018863176   -0.13775646   
     20100   26.561359      0.99821803     8.0405869      201            48.045559      9.5374807           1435           0   159.04029      3086.6857      26.568454      13.821047      0.24637678    -6.0268369     -0.081849193    0.0034109866   0.094453736  
     20200   26.516907      1.0122946      8.0567338      202            48.279501      9.5747363           1442           0   179.03193      3156.5258      26.541135      13.827767      0.24642068    -6.0174534     -0.021830085    0.018902944    0.020132865  
     20300   26.44792       0.9862888      8.0006545      203            48.512714      9.4796596           1449           0   204.9365       3082.0572      26.484267      13.810877      0.25406679    -6.064289      -0.010847369    0.041367223    0.082332259  
     20400   26.377127      1.0090525      7.9954025      204            48.746801      9.5085433           1456           0   201.88012      3121.5139      26.411537      13.818096      0.25048896    -6.0731829     -0.0089983741  -0.022246049    0.078414699  
     20500   26.306444      0.99416763     8.0059467      205            48.992087      9.4967667           1464           0   162.19636      3098.0185      26.34206       13.819495      0.23503875    -6.0485874      0.039608687   -0.05041425     0.0086146837 
     20600   26.225003      1.0260642      7.9594767      206            49.229301      9.4981275           1471           0   183.64105      3095.8059      26.26554       13.817239      0.231793      -6.0895553      0.092725202   -0.0081597194  -0.042418943  
     20700   26.183752      0.99497163     7.9466618      207            49.466871      9.4386874           1478           0   192.40483      3138.1876      26.19913       13.823797      0.23744829    -6.1145838      0.031193562    0.058637427    0.11336992   
     20800   26.187727      1.0037515      7.9457956      208            49.712187      9.4509872           1486           0   156.56152      3057.1689      26.184077      13.823988      0.21729382    -6.0954862      0.037075451    0.0078291923  -0.12627706   
     20900   26.219976      1.0045639      8.0026995      209            49.952535      9.5091093           1493           0   198.30348      3141.2142      26.201103      13.834103      0.22869769    -6.0601009      0.010947663   -0.001437602   -0.078405273  
     21000   26.272158      0.99548106     8.002486       210            50.190103      9.4952756           1500           0   221.35357      3146.5571      26.245331      13.833368      0.22313343    -6.0540157     -0.02514866    -0.027976555   -0.041963872  
     21100   26.310782      0.99656821     7.9912115      211            50.426591      9.4856313           1507           0   213.38586      3107.3583      26.293424      13.819604      0.23965054    -6.0680425     -0.044000118   -0.059896776   -0.033042685  
     21200   26.344033      0.99769201     8.0005107      212            50.663741      9.4966156           1514           0   238.26958      3151.8476      26.325168      13.823522      0.23554381    -6.0585548     -0.0085851127  -0.037722281   -0.022752154  
     21300   26.371335      0.99782401     8.0266179      213            50.898854      9.5229209           1521           0   179.17878      3126.5165      26.35872       13.828462      0.23586071    -6.0377049     -0.013691574    0.0015905422  -0.013473979  
     21400   26.393777      1.0078617      8.0147884      214            51.136704      9.5261435           1529           0   189.81234      3127.6889      26.383137      13.825536      0.22692806    -6.0376753      0.053647004    0.053420148    0.10672517   
     21500   26.418686      0.9980631      8.0278838      215            51.375373      9.5245453           1536           0   207.11028      3100.6338      26.407449      13.806631      0.23619557    -6.0149432     -0.035387123   -0.016803822    0.048699071  
     21600   26.422579      0.99260254     8.0217805      216            51.610484      9.5102535           1543           0   169.75865      3021.2311      26.421778      13.7929        0.24143977    -6.0125597      0.010290376   -0.0081490984  -0.054047286  
     21700   26.409193      0.9874533      7.9906878      217            51.851963      9.4714392           1550           0   160.7554       3045.0749      26.417572      13.796099      0.23196689    -6.037378       0.07711888    -0.065519742    0.064869694  
     21800   26.386311      0.98108157     7.9757615      218            52.095228      9.446958            1558           0   219.02681      3060.0243      26.398632      13.80575       0.23789279    -6.0678813     -0.011909067   -0.04412746     0.0097207345 
     21900   26.330647      0.95886049     8.0066925      219            52.334669      9.4445671           1565           0   188.71714      3113.7267      26.362689      13.824112      0.22781726    -6.0452367      0.014638605   -0.0060671206  -0.030024828  
     22000   26.25421       1.0081204      7.9669941      220            52.566686      9.4787372           1571           0   219.30419      3123.5513      26.291405      13.816852      0.2196373     -6.069495       0.087585438   -0.0015148307   0.038599301  
     22100   26.211565      0.99275094     7.9718786      221            52.802301      9.4605741           1578           0   186.71804      3088.2695      26.227532      13.821525      0.23016123    -6.0798076      0.026362971    0.062250066   -0.021687266  
     22200   26.216422      1.0036861      7.964828       222            53.038827      9.4699216           1585           0   213.65419      3084.0269      26.211152      13.804215      0.24484489    -6.0842322      0.049145546    0.045271101    0.004587968  
     22300   26.251885      1.0009088      7.9764859      223            53.278389      9.4774147           1592           0   143.70907      3008.3064      26.233188      13.806529      0.2243483     -6.0543913      0.011612628   -0.023452875   -0.08149603   
     22400   26.29058       1.00073        7.986106       224            53.52968       9.4867667           1599           0   197.20126      3113.9669      26.271804      13.815357      0.22965144    -6.0589024      0.020860241    0.013959538   -0.084848914  
     22500   26.330162      1.0122843      8.0038495      225            53.766221      9.5218365           1606           0   198.14733      3055.3776      26.311003      13.810975      0.23255269    -6.0396781     -0.0067447292   0.001458144   -0.066479086  
     22600   26.374054      1.0009835      8.0453076      226            54.002737      9.5463484           1613           0   171.26059      3130.4178      26.350561      13.827895      0.2408407     -6.0234284      0.033510519    0.027299735    0.026060798  
     22700   26.447599      0.99839292     8.0508332      227            54.239505      9.5479893           1620           0   262.43944      3130.2945      26.409807      13.813094      0.2390616     -6.0013221      0.01726715    -0.015345239    0.078020409  
     22800   26.525523      0.98774507     8.0989915      228            54.477069      9.5801804           1627           0   207.94339      3124.16        26.486657      13.815181      0.25604422    -5.9722334      0.050320496    0.011115816    0.088678209  
     22900   26.593515      1.0047793      8.067087       229            54.7181        9.5738199           1635           0   213.47269      3178.5991      26.563903      13.846044      0.22780333    -6.0067601     -0.015174041   -0.054155808   -0.048966666  
     23000   26.616712      0.99582296     8.0603716      230            54.955111      9.5536738           1642           0   219.7666       3099.4978      26.608783      13.820308      0.23076985    -5.9907067      0.032212627    0.0040705958   0.071628634  
     23100   26.624872      1.0013445      8.0956656      231            55.188441      9.5972477           1649           0   195.6297       3104.3632      26.622135      13.821039      0.25128858    -5.9766618      0.038296197   -0.032819182   -0.11073429   
     23200   26.618427      0.99574192     8.0952383      232            55.426602      9.588419            1657           0   200.25636      3163.0496      26.621914      13.837561      0.24600176    -5.9883246     -0.011142437    0.033198018    0.0094845254 
     23300   26.618951      1.0205548      8.1024541      233            55.663913      9.6328434           1664           0   162.14296      3100.7196      26.61784       13.818531      0.24183655    -5.9579136      0.012762307   -0.0034909268   0.10603688   
     23400   26.614299      1.0285618      8.1145871      234            55.90015       9.6569833           1671           0   175.1492       3022.024       26.617089      13.803934      0.25635855    -5.9457057     -0.036284595   -0.045009005   -0.042054566  
     23500   26.601352      1.0129215      8.1162218      235            56.142221      9.6351644           1679           0   200.43725      3104.8216      26.607569      13.807233      0.25703198    -5.9480432      0.039743097    0.037749697   -0.043470672  
     23600   26.606531      1.0254539      8.081204       236            56.376921      9.6189398           1686           0   191.96235      3050.7277      26.603499      13.816053      0.24436631    -5.9792157     -0.018251464   -0.021631012    0.0080107945 
     23700   26.608692      0.97975556     8.0536069      237            56.617446      9.522815            1693           0   185.51082      3039.9187      26.608676      13.792195      0.23834364    -5.9769317      0.041929471    0.02537234     0.14330993   
     23800   26.601882      0.94954612     8.0970394      238            56.856207      9.5209464           1700           0   172.54166      3127.4806      26.606378      13.818158      0.24612055    -5.9672393      0.016451251   -0.0051670494   0.07521667   
     23900   26.575062      0.96720966     8.0456034      239            57.091873      9.4959981           1707           0   201.92903      3111.7539      26.591083      13.825904      0.21528197    -5.9955825     -0.025010229   -0.057317557   -0.065592972  
     24000   26.510832      1.0110457      8.0322729      240            57.329835      9.5484025           1714           0   222.10404      3149.2269      26.544717      13.840052      0.23598331    -6.0437621      0.010107918   -0.034757467    0.15576783   
     24100   26.42936       1.0261101      8.0472162      241            57.567735      9.5859359           1721           0   166.03116      3087.5164      26.470889      13.826519      0.24616138    -6.0254637     -0.071667653   -0.038461368   -0.013524227  
     24200   26.344696      1.0203213      8.0434921      242            57.809967      9.5735312           1729           0   241.04474      3126.0799      26.383355      13.832241      0.24897098    -6.0377199      0.067014827   -0.00073359365 -0.12504112   
     24300   26.305421      0.99076528     8.0568721      243            58.047266      9.5425901           1736           0   179.37656      3105.4825      26.321336      13.824069      0.24094472    -6.0081417     -0.00802       -0.0084319103  -0.13114865   
     24400   26.28784       0.99500795     8.0251348      244            58.285851      9.5172148           1744           0   197.02019      3142.9788      26.294845      13.833672      0.23921634    -6.0477539     -0.024624786    0.047070681    0.037387928  
     24500   26.296363      0.99457575     8.0361991      245            58.518622      9.527631            1751           0   195.16048      3149.2977      26.288819      13.826367      0.24739719    -6.0375654     -0.057086665    0.035352336    0.099157355  
     24600   26.313327      1.0018148      8.0192096      246            58.753026      9.5214969           1758           0   264.30594      3150.0314      26.305772      13.817102      0.24176895    -6.0396619      0.019948139    0.030651008    0.025343969  
     24700   26.355187      1.005416       8.0229875      247            58.983014      9.5306751           1764           0   184.54186      3117.3971      26.330489      13.823245      0.23778345    -6.0380414      0.00092984587  0.015460666    0.11204027   
     24800   26.429086      1.0162129      8.0569862      248            59.215314      9.5808644           1771           0   199.75122      3109.6499      26.390605      13.822406      0.22459673    -5.9900168      0.019497637   -0.028445089    0.03315113   
     24900   26.498533      0.99832656     8.1180409      249            59.450088      9.6150975           1778           0   166.14355      3139.6046      26.466393      13.826173      0.2480529     -5.9561849      0.0097663579  -0.0071597886   0.045444255  
     25000   26.545116      0.98907824     8.124365       250            59.688335      9.6075531           1786           0   157.85512      2989.7493      26.523561      13.824206      0.25020005    -5.9500406     -0.068847506   -0.088957164   -0.17348615   
     25100   26.557744      1.0176271      8.0992218      251            59.920128      9.6252207           1793           0   170.92544      3070.1091      26.554233      13.80944       0.23969703    -5.949915       0.026865434   -0.025404818    0.0078439299 
     25200   26.554117      0.99433665     8.1003073      252            60.157728      9.5913807           1801           0   181.98874      3097.2753      26.556537      13.825291      0.25164547    -5.9766287      0.038766816   -0.056572029   -0.15588566   
     25300   26.52982       0.98066819     8.0740997      253            60.389432      9.5446764           1808           0   198.47119      3155.3494      26.546191      13.826058      0.23752255    -5.989481      -0.066327335    0.017055551    0.11483461   
     25400   26.466713      1.0027527      8.0537123      254            60.622128      9.5574061           1815           0   205.59142      2974.9774      26.498731      13.796717      0.25026529    -5.9932702      0.020304956   -0.073465681    0.042626993  
     25500   26.397432      1.0039274      8.0934038      255            60.855218      9.5988592           1822           0   278.46422      3152.8757      26.431512      13.838055      0.24231597    -5.9869674      0.027844828    0.038182392   -0.10244887   
     25600   26.345132      0.99545072     8.0240757      256            61.088788      9.5168198           1829           0   157.22361      3074.8798      26.369407      13.815834      0.23399936    -6.0257577      0.032342967    0.0054600887   0.013898897  
     25700   26.307565      0.99168842     8.0352044      257            61.326512      9.5223066           1837           0   193.77892      3097.1861      26.324944      13.819103      0.24946137    -6.0333602      0.022454452    0.013106448   -0.12415824   
     25800   26.299435      1.0218307      7.9976213      258            61.561376      9.5299239           1844           0   187.26149      3073.2096      26.301268      13.824389      0.2284889     -6.0552571     -0.017642663   -0.0093658233  -0.068557136  
     25900   26.32631       1.0128527      8.0360093      259            61.796935      9.5548488           1851           0   205.36961      3162.3792      26.30709       13.8438        0.22769786    -6.0354886      0.025309883    0.0058483781  -0.069253278  
     26000   26.398079      1.005798       8.0471238      260            62.031065      9.5553842           1858           0   180.09837      3044.328       26.360572      13.804622      0.23100779    -5.988506       0.013709334   -0.039345761    0.033562448  
     26100   26.471813      0.99626718     8.0991199      261            62.264027      9.5930883           1865           0   163.93192      3117.2515      26.436884      13.821349      0.2459232     -5.9681524      0.0088731145   0.028854375    0.081331043  
     26200   26.519989      1.0058169      8.1198557      262            62.495643      9.6281444           1872           0   167.95066      3095.9314      26.498165      13.814865      0.257431      -5.9524405      0.013737985   -0.01032222     0.044740606  
     26300   26.548102      0.99430224     8.1058628      263            62.727319      9.5968846           1879           0   174.26131      3158.2818      26.536142      13.827148      0.24997749    -5.9712632      0.022334483   -0.0073036037   0.073646627  
     26400   26.567388      1.0090283      8.1238253      264            62.959261      9.6369298           1886           0   200.69252      3155.0994      26.559268      13.836798      0.24422623    -5.9571994     -0.0204604      0.016142588    0.012125437  
     26500   26.571773      1.0326452      8.108619       265            63.195816      9.6571385           1894           0   198.91519      3077.5224      26.569811      13.829339      0.25538005    -5.9760998     -0.0039174561  -0.033313459   -0.036430415  
     26600   26.572437      0.99314272     8.0781656      266            63.432067      9.5674486           1901           0   188.04665      3075.0595      26.574044      13.824186      0.2393149     -5.9853352     -0.072607933   -0.018673882   -0.063515889  
     26700   26.555878      1.0149666      8.0582457      267            63.665246      9.5802551           1908           0   192.23247      3064.9187      26.563759      13.824323      0.22916925    -5.9952469     -0.034451545    0.0051578358  -0.083208014  
     26800   26.521378      0.99125333     8.0767631      268            63.898373      9.5632129           1915           0   247.26173      3078.4166      26.542892      13.816361      0.2459855     -5.9855831     -0.060835844   -0.016928952    0.073960229  
     26900   26.442585      0.99886215     8.0491662      269            64.133871      9.5470259           1922           0   262.69954      3138.395       26.483923      13.818603      0.23075195    -6.0001885      0.0096190198  -0.0055262967  -0.019357479  
     27000   26.340543      0.96584186     8.0240874      270            64.366813      9.472431            1929           0   245.67718      3054.0786      26.39315       13.817418      0.23235462    -6.0256856     -0.07191911    -0.010511401   -0.20545603   
     27100   26.227009      0.99181799     7.9740633      271            64.601375      9.4613598           1936           0   217.8635       3067.8898      26.280473      13.817633      0.24035397    -6.0839234      0.0094774009  -0.0067939013   0.043916457  
     27200   26.150056      1.0013169      7.967417       272            64.839307      9.4689577           1944           0   177.19948      3073.1007      26.184903      13.818613      0.22131669    -6.072513       0.041554412   -0.014402867    0.027282893  
     27300   26.119482      0.98833032     7.9667844      273            65.075538      9.448851            1951           0   177.65625      3061.2485      26.129934      13.800392      0.23003197    -6.0636393      0.036338657    0.026341826   -0.20922683   
     27400   26.134066      0.97205453     7.9663745      274            65.311287      9.4240344           1958           0   193.59601      3119.4178      26.123581      13.826894      0.23597086    -6.09649        0.016566552    0.024461102   -0.074196658  
     27500   26.170339      0.98244438     7.9733517      275            65.543694      9.4465918           1965           0   177.04516      3119.0486      26.151322      13.806062      0.22364646    -6.0563568      0.029566871    0.055851018    0.06014251   
     27600   26.221355      0.98584906     7.9789905      276            65.779579      9.4573362           1972           0   200.40825      3115.129       26.19421       13.831204      0.23771513    -6.0899285     -0.062047429   -0.03937916    -0.11643538   
     27700   26.285985      0.98244191     7.97833        277            66.017937      9.4515665           1979           0   192.57207      3130.6368      26.251768      13.841428      0.23422484    -6.097323       0.021850663   -0.04504171    -0.0062047122 
     27800   26.362613      0.97917529     8.0153372      278            66.264277      9.4836751           1987           0   220.35117      3122.2303      26.324392      13.807975      0.24032211    -6.0329604      0.033029052    0.027658395   -0.0012392354 
     27900   26.425323      0.99184689     8.0207895      279            66.502938      9.5081294           1994           0   221.39939      3100.065       26.396997      13.811708      0.22293673    -6.0138551      0.0254534      0.0071302157  -0.13904971   
     28000   26.468414      0.98033698     8.0735515      280            66.741626      9.5436315           2001           0   245.50678      3112.4028      26.447677      13.818998      0.2452969     -5.990743       0.0042861941   0.0093790059   0.054538148  
     28100   26.49051       0.99283578     8.0951627      281            66.980382      9.5839855           2008           0   182.68076      3152.7635      26.48237       13.82397       0.24492909    -5.9737362      0.028187839   -0.0169023      0.031234408  
     28200   26.493828      0.99445313     8.0435455      282            67.217832      9.5347936           2015           0   165.11863      3048.3166      26.492134      13.818053      0.23129193    -6.0057998      0.013436521   -0.021733764    0.0068151067 
     28300   26.47955       0.97476132     8.0607239      283            67.4542        9.5224428           2022           0   199.28391      3121.3247      26.489977      13.823247      0.24574895    -6.0082725      0.0048260117   0.0048051204  -0.012169359  
[...]
     93000   26.240892      1.020237       8.0331959      930            221.79631      9.5631086           6650           0   208.0456       3121.2877      26.271538      13.821134      0.24552681    -6.0334652      0.010034871    0.034501923    0.16761579   
     93100   26.198182      1.0204889      8.034811       931            222.03173      9.5651014           6657           0   207.78196      3090.2293      26.215322      13.817636      0.23260294    -6.0154276      0.037687773    0.0099198914  -0.028172175  
     93200   26.195716      1.0143812      8.0450855      932            222.26813      9.566217            6665           0   193.75225      3148.5951      26.192969      13.818201      0.23668343    -6.0097991      0.037508777    0.078253614    0.033560098  
     93300   26.244222      0.98867954     8.0258951      933            222.50467      9.5084853           6672           0   184.15153      3041.5713      26.216122      13.809902      0.2451616     -6.029168       0.00070708399  0.030457977   -0.14730347   
     93400   26.324815      0.9870317      8.0374557      934            222.74132      9.5175748           6679           0   189.58501      3131.9724      26.283143      13.816253      0.23674828    -6.0155457      0.036313325    0.023925561    0.077826728  
     93500   26.41513       0.98509163     8.0686828      935            222.9773       9.5458927           6686           0   199.45092      3131.5408      26.371309      13.822225      0.23509612    -5.9886381     -0.0087451993   0.053155663    0.089404721  
     93600   26.484398      0.96415356     8.0969462      936            223.20933      9.542758            6693           0   180.45155      3054.9704      26.453365      13.81326       0.23483012    -5.9511435     -0.0085835252  -0.003141451    0.031651299  
     93700   26.527268      0.99811602     8.0476239      937            223.44165      9.5443647           6700           0   164.28602      3053.9881      26.507364      13.806459      0.23815592    -5.9969912     -0.059270576   -0.075586229   -0.050138636  
     93800   26.51969       1.0008331      8.0868387      938            223.67433      9.587654            6707           0   211.88039      3060.2352      26.527064      13.821442      0.23481025    -5.9694135     -0.0090971312   0.0065220561   0.0024105843 
     93900   26.489521      1.0145572      8.0818576      939            223.91085      9.603253            6715           0   255.48872      3103.3155      26.50494       13.821349      0.24768034    -5.9871716     -0.0099068856   0.0056283723   0.040089528  
     94000   26.453649      1.0048176      8.0999457      940            224.14303      9.606736            6722           0   178.37534      3150.5067      26.471416      13.821481      0.24448779    -5.9660235      0.013636146    0.0063142656   0.058947151  
     94100   26.434666      0.9863785      8.1110291      941            224.39201      9.5901687           6729           0   233.88294      3166.0139      26.440734      13.825723      0.24184175    -5.9565358      0.0018209419   0.051007074    0.044343326  
     94200   26.4398        1.0004206      8.0993589      942            224.62331      9.5995556           6736           0   204.15349      3074.6861      26.437537      13.823779      0.24386866    -5.9682887      0.081884941   -0.0012921359  -0.028412074  
     94300   26.461839      0.99308647     8.0564549      943            224.85459      9.5456536           6743           0   172.00604      3120.5954      26.44808       13.816665      0.24790925    -6.0081194      0.098291961    0.03723272     0.16935966   
     94400   26.521842      1.0029501      8.0530436      944            225.08786      9.5570334           6750           0   170.68777      3059.2675      26.489728      13.81319       0.24098054    -6.0011267     -0.018671571    0.048363492    0.0026066988 
     94500   26.580996      0.97462295     8.0656626      945            225.32465      9.527174            6758           0   175.07002      3045.0704      26.553494      13.805486      0.25494663    -5.9947696     -0.0066137771  -0.033134579   -0.09011119   
     94600   26.614801      1.0101487      8.0624415      946            225.55604      9.5772262           6765           0   162.64908      3099.652       26.600806      13.824693      0.25234253    -6.0145944     -0.07514351    -0.029462199   -0.032022028  
     94700   26.635649      0.98178738     8.1035903      947            225.78901      9.5758453           6772           0   181.66083      3109.8997      26.626144      13.836626      0.25617466    -5.9892099      0.014968784   -0.040412695   -0.082295689  
     94800   26.635522      0.99672637     8.0770829      948            226.02102      9.5717398           6779           0   167.69363      3114.3899      26.637171      13.812408      0.24473944    -5.9800642     -0.026760723    0.040574536    0.10137175   
     94900   26.612356      0.97038571     8.1062162      949            226.25722      9.5613735           6787           0   200.08986      3191.199       26.626786      13.839312      0.23814352    -5.9712398      0.0094866185  -0.03605929     0.028221223  
     95000   26.561664      1.0108457      8.089231       950            226.48975      9.6050608           6794           0   175.25774      3137.8799      26.58881       13.830264      0.24595337    -5.9869864     -0.012505606   -0.029664046   -0.0071359438 
     95100   26.4888        1.0046613      8.0490876      951            226.72559      9.5556435           6801           0   188.97486      3107.4213      26.527512      13.819546      0.23527649    -6.0057347     -0.014374204   -0.014201418   -0.082291521  
     95200   26.392886      0.99600424     8.0107609      952            226.95861      9.5043349           6808           0   193.92426      3055.7156      26.441288      13.814365      0.24471928    -6.0483234      0.044855021   -0.030427592   -0.10574214   
     95300   26.311861      1.0109083      7.9959549      953            227.19654      9.5118785           6816           0   163.53533      3091.3471      26.349274      13.819928      0.23963677    -6.06361        0.037847934    0.063963835   -0.11903536   
     95400   26.276188      1.0085629      7.9834865      954            227.43045      9.4958932           6823           0   234.94199      3135.0413      26.2916        13.814549      0.23193415    -6.062997       0.053825961    0.030731737    0.13269661   
     95500   26.279984      0.98882841     7.9867913      955            227.66642      9.4696047           6830           0   195.69809      3105.6456      26.272754      13.819824      0.22939032    -6.062423       0.015084926    0.044625742   -0.098076639  
     95600   26.322288      1.0164309      8.0003546      956            227.90623      9.5245598           6838           0   198.46908      3151.2646      26.300116      13.833897      0.22899383    -6.0625361      0.043160257    0.057731795    0.14716785   
     95700   26.38735       1.0034866      7.9742687      957            228.14157      9.4790629           6845           0   167.03916      3043.7473      26.354239      13.817455      0.23675638    -6.0799428     -0.071465295   -0.015032718   -0.074828382  
     95800   26.445583      1.0092884      8.0047636      958            228.37523      9.5182582           6852           0   235.53225      3087.635       26.417759      13.814324      0.23065917    -6.0402198     -0.059643985   -0.049116768    0.0085456121 
     95900   26.471429      1.0003733      8.0721275      959            228.60923      9.5722533           6859           0   176.66438      3066.5843      26.461286      13.808018      0.25521006    -5.9911003     -0.0035138621  -0.027598389   -0.018261028  
     96000   26.479042      1.0110138      8.0347201      960            228.8475       9.5508019           6867           0   186.2459       3103.7193      26.476426      13.820502      0.23298948    -6.0187717     -0.0098394663   0.012516189   -0.038116699  
     96100   26.48528       0.99745301     8.0414473      961            229.08143      9.5371939           6874           0   231.99915      3116.4943      26.48106       13.821932      0.24799404    -6.0284793      0.030512574    0.0067777733   0.18705214   
     96200   26.487266      1.0001741      8.0508845      962            229.31412      9.5507115           6881           0   202.50738      3095.0983      26.487132      13.829068      0.22205556    -6.0002387     -0.030875607   -0.0070661292  -0.099265585  
     96300   26.481251      1.0098008      8.0115147      963            229.5474       9.5257777           6888           0   197.40427      3115.0338      26.48431       13.820938      0.23066749    -6.0400911      0.01354254     0.067549487    0.063246263  
     96400   26.483904      0.99769344     8.014364       964            229.78122      9.5104711           6895           0   169.76258      3072.2344      26.484462      13.817991      0.22538089    -6.0290084      0.014564089    0.021026889   -0.0065968529 
     96500   26.477999      0.99082385     7.9963451      965            230.01956      9.4821508           6903           0   201.13248      3076.718       26.481037      13.810846      0.23265892    -6.0471595      0.0094829953   0.0091534898  -0.0489263    
     96600   26.477522      0.98822233     8.0263735      966            230.25443      9.5082781           6910           0   174.41819      3084.5745      26.475498      13.819662      0.24854071    -6.0418288     -0.024474609   -0.0068870012  -0.092928702  
     96700   26.493051      0.96087071     8.0705227      967            230.48979      9.5114117           6917           0   198.58373      3138.9078      26.485239      13.818364      0.24433434    -5.9921753      0.0078613941   0.026025621    0.052481569  
     96800   26.514164      0.98630125     8.0685064      968            230.72402      9.5475302           6924           0   186.28949      3123.7988      26.502057      13.826218      0.24199401    -5.9997053     -0.021084547   -0.042353427   -0.10677546   
     96900   26.53639       1.0080063      8.0676544      969            230.96025      9.5792263           6931           0   166.72204      3107.3176      26.524915      13.822774      0.23522081    -5.9903407     -0.0031116227   0.027382651   -0.00064238817
     97000   26.567518      0.98311433     8.1161814      970            231.19846      9.5904261           6939           0   241.63317      3144.6866      26.552325      13.837835      0.24750265    -5.9691562      0.08208313     0.029668056    0.023758915  
     97100   26.621148      1.0293331      8.056107       971            231.43239      9.5996599           6946           0   171.97062      3070.1494      26.592815      13.816667      0.239637      -6.0001967     -0.019299293   -0.045478297   -0.032294971  
     97200   26.684359      1.0193583      8.1220182      972            231.66496      9.6506132           6953           0   252.826        3132.316       26.652452      13.82815       0.250135      -5.9562666     -0.00097206249  0.019380148    0.026212735  
     97300   26.745796      0.98604459     8.1264587      973            231.90061      9.6050976           6961           0   202.81721      3122.8897      26.717251      13.815676      0.23693223    -5.9261493     -0.031827578    0.058639734   -0.05347325   
     97400   26.784254      1.0077371      8.1516482      974            232.13735      9.6628164           6969           0   180.04024      3084.8728      26.76769       13.812383      0.25698095    -5.9177163     -0.033463211   -0.011520236   -0.13925737   
     97500   26.798089      1.0142104      8.1118025      975            232.36852      9.6326779           6976           0   187.82568      3148.7146      26.791908      13.811528      0.23831889    -5.9380448      0.0012846285  -0.00046252526  0.062552143  
     97600   26.783978      1.0157285      8.0645198      976            232.60024      9.5876717           6983           0   178.52538      3028.578       26.794781      13.81833       0.23769938    -5.99151       -0.092565874   -0.033217591   -0.16345505   
     97700   26.740845      0.98746218     8.1437516      977            232.83074      9.6245163           6990           0   255.62985      3136.5608      26.762447      13.825198      0.25514008    -5.9365864     -0.0065231548  -0.0092523146   0.063207461  
     97800   26.678145      1.0229154      8.1213377      978            233.06067      9.6552668           6997           0   192.65416      3111.0152      26.711592      13.830686      0.24440283    -5.953751      -0.050696661   -0.028888763    0.010593256  
     97900   26.604711      1.0045731      8.0958983      979            233.29885      9.6023219           7005           0   196.81593      3132.9152      26.639765      13.814622      0.24686614    -5.9655901      0.02740184     0.032322033   -0.0056672826 
     98000   26.547461      1.0182736      8.0576517      980            233.5327       9.5846201           7012           0   279.53731      3104.041       26.574762      13.814048      0.23946051    -5.995857      -0.036944602    0.036790738   -0.040887587  
     98100   26.506711      0.99643518     8.0926324      981            233.76649      9.5868527           7019           0   187.61149      3129.0907      26.524285      13.819923      0.23937587    -5.9666666     -0.018530293    0.048218838   -0.005777735  
     98200   26.487092      1.0040556      8.1088939      982            233.99753      9.6145415           7026           0   203.21461      3169.6705      26.496342      13.827133      0.24848767    -5.9667271      0.022992072    0.0094553386  -0.063113124  
     98300   26.471         1.0106676      8.073473       983            234.22799      9.5890357           7033           0   182.11399      3086.0152      26.478097      13.811045      0.24421932    -5.9817918     -0.0010255815   0.0059157472  -0.06065754   
     98400   26.464818      0.98709285     8.0651186      984            234.46104      9.5453294           7040           0   200.55091      3099.5034      26.468255      13.815012      0.2156415     -5.9655345      0.014707117    0.062459117    0.04707496   
     98500   26.46786       0.99436994     8.0311285      985            234.69879      9.5222518           7048           0   215.77171      3073.7279      26.464948      13.800719      0.23911944    -6.0087099     -0.012222113   -0.0057937816   0.049982458  
     98600   26.485407      0.99125039     8.0466991      986            234.9316       9.5331445           7055           0   246.34288      3112.3095      26.476008      13.823003      0.23376831    -6.0100725     -0.0068805793  -0.032800338   -0.035529839  
     98700   26.491221      0.99510181     8.0604635      987            235.1641       9.5526843           7062           0   166.95011      3094.4204      26.490479      13.829867      0.23578952    -6.0051931     -0.046052198   -0.04306175    -0.058366466  
     98800   26.465711      0.99698012     8.0769601      988            235.39759      9.5719976           7069           0   191.07057      3086.1662      26.479631      13.822219      0.24100422    -5.9862636      0.012878841   -0.019930565   -0.035967826  
     98900   26.425257      1.0118567      8.0284991      989            235.63547      9.545845            7077           0   202.44967      3032.8784      26.445604      13.81986       0.23488911    -6.0262504      0.040395262   -0.025582375   -0.12768248   
     99000   26.394297      0.99360914     8.0262183      990            235.8695       9.5162008           7084           0   210.00418      3082.6942      26.409879      13.819235      0.2197417     -6.0127587      0.012766055   -0.0086130792  -0.035014155  
     99100   26.365675      1.0123349      8.0252113      991            236.10452      9.5432743           7091           0   171.51054      3064.1265      26.378167      13.812023      0.23168935    -6.0185007      0.00037227666 -0.039737819   -0.05833449   
     99200   26.342598      1.004299       8.021587       992            236.33678      9.5275997           7098           0   165.71232      3094.8021      26.352469      13.815725      0.23806485    -6.0322031      0.023815064    0.013744783    0.064035009  
     99300   26.348042      1.0009359      8.0495509      993            236.57418      9.5505203           7106           0   163.93248      3113.1327      26.342792      13.824877      0.23834043    -6.0136667      0.019804881    0.0094336094  -0.030047876  
     99400   26.371515      1.0151287      8.026327       994            236.80383      9.5485795           7112           0   197.20172      3086.48        26.360477      13.817296      0.22639333    -6.0173622     -0.0055415444   0.0039188708  -0.013962612  
     99500   26.394243      0.99551421     8.0197841      995            237.03864      9.5126233           7119           0   162.45049      3069.1095      26.381595      13.810288      0.23132265    -6.0218263      0.039149135    0.020278471    0.088353828  
     99600   26.430909      0.97225158     8.0453373      996            237.27748      9.5032927           7127           0   185.29681      3167.1661      26.413517      13.825474      0.23107255    -6.0112094      0.0056739313  -0.0023319638   0.15450922   
     99700   26.460231      1.0123294      8.0281209      997            237.50813      9.5461756           7133           0   166.29723      3073.7225      26.44503       13.808691      0.22786737    -6.0084376     -0.030221783    0.054650766    0.042614564  
     99800   26.504463      0.97312547     8.0557373      998            237.7392       9.5150031           7140           0   216.58388      3053.0112      26.483811      13.8108        0.23347221    -5.9885351     -0.016184232    0.023935112    0.0096021238 
     99900   26.533679      1.0116179      8.0729193      999            237.97099      9.5899071           7147           0   190.03681      3110.5831      26.521233      13.836485      0.22969752    -5.9932632      0.011735615   -0.04157944     0.034150737  
    100000   26.537014      0.98256051     8.071898       1000           238.20294      9.5453123           7154           0   195.41925      3127.9571      26.538667      13.812969      0.23461585    -5.9756865      0.012576774    0.019438992    0.053380819  
Loop time of 238.205 on 1 procs for 100000 steps with 3456 atoms

Performance: 362712.963 tau/day, 419.807 timesteps/s, 1.451 Matom-step/s
98.8% CPU use with 1 MPI tasks x 1 OpenMP threads

MPI task timing breakdown:
Section |  min time  |  avg time  |  max time  |%varavg| %total
---------------------------------------------------------------
Pair    | 184.85     | 184.85     | 184.85     |   0.0 | 77.60
Bond    | 5.6809     | 5.6809     | 5.6809     |   0.0 |  2.38
Neigh   | 32.767     | 32.767     | 32.767     |   0.0 | 13.76
Comm    | 1.017      | 1.017      | 1.017      |   0.0 |  0.43
Output  | 0.21731    | 0.21731    | 0.21731    |   0.0 |  0.09
Modify  | 13.082     | 13.082     | 13.082     |   0.0 |  5.49
Other   |            | 0.592      |            |       |  0.25

Nlocal:           3456 ave        3456 max        3456 min
Histogram: 1 0 0 0 0 0 0 0 0 0
Nghost:           2137 ave        2137 max        2137 min
Histogram: 1 0 0 0 0 0 0 0 0 0
Neighs:         144781 ave      144781 max      144781 min
Histogram: 1 0 0 0 0 0 0 0 0 0

Total # of neighbors = 144781
Ave neighs/atom = 41.89265
Ave special neighs/atom = 2
Neighbor list builds = 7154
Dangerous builds = 0
Total wall time: 0:03:58
