LAMMPS (29 Aug 2024)
OMP_NUM_THREADS environment is not set. Defaulting to 1 thread. (src/comm.cpp:98)
  using 1 OpenMP thread(s) per MPI task
# Usage:
# lmp -var seed 1 -var halfL 30 -in -var duration 1000. -in in.lmp
# seed : seed for thermostat and initial velocities
# halfL : half of the length of the simulation box
# duration : simulation duration in simulation time units \tau

# parallelize in xy
processors * * 1

units      lj

# define simulation box
region box block -${halfL} ${halfL} -${halfL} ${halfL} -${halfL} ${halfL}
region box block -12 ${halfL} -${halfL} ${halfL} -${halfL} ${halfL}
region box block -12 12 -${halfL} ${halfL} -${halfL} ${halfL}
region box block -12 12 -12 ${halfL} -${halfL} ${halfL}
region box block -12 12 -12 12 -${halfL} ${halfL}
region box block -12 12 -12 12 -12 ${halfL}
region box block -12 12 -12 12 -12 12
boundary   p p p

# prepare for cooke lipid
atom_style angle
create_box 2 box  bond/types 1 angle/types 1 extra/bond/per/atom 3 extra/angle/per/atom 3 extra/special/per/atom 3
Created orthogonal box = (-12 -12 -12) to (12 12 12)
  1 by 1 by 1 MPI processor grid
mass * 1.0

# setup conservative neighbor lists
neighbor 1. bin
neigh_modify every 1 delay 1

# define interactions
variable hydro_w equal 1.5
variable two6 equal $(2^(1/6))
variable two6 equal 1.1224620483093730172
variable hh_sigma equal $(0.95*v_two6)
variable hh_sigma equal 1.0663389458939014354
variable tt_sigma equal $(v_two6)
variable tt_sigma equal 1.1224620483093699086
variable tt_rc equal $(v_two6+v_hydro_w)
variable tt_rc equal 2.6224620483093699086

special_bonds lj 0 1 1
Finding 1-2 1-3 1-4 neighbors ...
  special bond factors lj:    0        1        1       
  special bond factors coul:  0        0        0       
     0 = max # of 1-2 neighbors
     0 = max # of 1-3 neighbors
     0 = max # of 1-4 neighbors
     7 = max # of special neighbors
  special bonds CPU = 0.000 seconds
pair_style cosine/squared ${tt_rc}
pair_style cosine/squared 2.62246204830937
bond_style fene
angle_style harmonic

# 1 : head , 2 : tail
pair_coeff 1 1 1. $(0.95*v_two6) ${two6} wca
pair_coeff 1 1 1. 1.0663389458939014354 ${two6} wca
pair_coeff 1 1 1. 1.0663389458939014354 1.12246204830937 wca
pair_coeff 1 2 1. $(0.95*v_two6) ${two6} wca
pair_coeff 1 2 1. 1.0663389458939014354 ${two6} wca
pair_coeff 1 2 1. 1.0663389458939014354 1.12246204830937 wca
pair_coeff 2 2 1. ${two6} ${tt_rc} wca
pair_coeff 2 2 1. 1.12246204830937 ${tt_rc} wca
pair_coeff 2 2 1. 1.12246204830937 2.62246204830937 wca
bond_coeff 1 30.0 1.5 1.0 1.0
angle_coeff 1 5.0 180.0

# define Cooke lipid
molecule lipid lipid.txt
Read molecule template lipid:
# Cooke lipid
  1 molecules
  0 fragments
  3 atoms with max type 2
  2 bonds with max type 1
  1 angles with max type 1
  0 dihedrals with max type 0
  0 impropers with max type 0

# build bilayer
lattice custom 1. a1 1 0 0 a2 0 1 0 a3 0 0 1 origin 0 0 0. basis 0.5 0.5 0.5
Lattice spacing in x,y,z = 1 1 1
region upper_leaflet block EDGE EDGE EDGE EDGE 1.5 1.5 units box
create_atoms 0 region upper_leaflet mol lipid 1 rotate 0 1 0 0
Created 1728 atoms
  using lattice units in orthogonal box = (-12 -12 -12) to (12 12 12)
  create_atoms CPU = 0.000 seconds
region lower_leaflet block EDGE EDGE EDGE EDGE -1.5 -1.5
create_atoms 0 region lower_leaflet mol lipid 1 rotate 180 1 0 0
Created 1728 atoms
  using lattice units in orthogonal box = (-12 -12 -12) to (12 12 12)
  create_atoms CPU = 0.000 seconds

# write topology file for latter visualization
write_data topo.data
System init for write_data ...
Generated 0 of 1 mixed pair_coeff terms from geometric mixing rule
Neighbor list info ...
  update: every = 1 steps, delay = 1 steps, check = yes
  max neighbors/atom: 2000, page size: 100000
  master list distance cutoff = 3.622462
  ghost atom cutoff = 3.622462
  binsize = 1.811231, bins = 14 14 14
  1 neighbor lists, perpetual/occasional/extra = 1 0 0
  (1) pair cosine/squared, perpetual
      attributes: half, newton on
      pair build: half/bin/newton
      stencil: half/bin/3d
      bin: standard
WARNING: Not all mixed pair coeffs generated from mixing. Use write_data with 'pair ij' option to store all pair coeffs. (src/write_data.cpp:364)

# define ensemble

variable temperature equal 1.0

fix langevin all langevin ${temperature} ${temperature} 1.0 ${seed} zero yes
fix langevin all langevin 1 ${temperature} 1.0 ${seed} zero yes
fix langevin all langevin 1 1 1.0 ${seed} zero yes
fix langevin all langevin 1 1 1.0 1 zero yes
fix fNPH all nph x 0. 0. 10. y 0. 0. 10. couple xy dilate all

# thermalize
velocity all create ${temperature} ${seed}
velocity all create 1 ${seed}
velocity all create 1 1
timestep        0.01

# define output
thermo 100
variable lx equal lx
fix avg_lx all ave/time 1 100 100 v_lx mode scalar ave one
thermo_style custom step lx temp pe time cpu etotal nbuild ndanger fmax fnorm f_avg_lx ebond eangle epair pxx pyy pzz

dump dump all netcdf 1000 traj.nc x y z
dump_modify dump thermo yes

# run
run $(v_duration*100) # 100 steps = 1\tau
run 100000 
Generated 0 of 1 mixed pair_coeff terms from geometric mixing rule
Per MPI rank memory allocation (min/avg/max) = 6.625 | 6.625 | 6.625 Mbytes
   Step           Lx            Temp          PotEng          Time           CPU           TotEng       Nbuild      Ndanger        Fmax          Fnorm         f_avg_lx        E_bond        E_angle         E_pair          Pxx            Pyy            Pzz      
         0   24             1              7.3346159      0              0              8.8341819              0           0   75.28014       2455.0303      0              13.891867      0             -6.5572507      2.6736786      2.6786802     -5.3920944    
       100   24.391604      1.0727027      6.8560336      1              0.24907862     8.464622               7           0   224.92026      3453.4073      24.196486      13.841916      0.18276985    -7.1686523      0.016221038    0.023905347    0.26157268   
       200   24.545934      1.033609       6.8290857      2              0.50599129     8.3790506             14           0   199.54672      3402.3735      24.484452      13.838258      0.20023075    -7.2094031     -0.11669078    -0.034053685   -0.044641315  
       300   24.592535      1.0214663      6.8153069      3              0.7631305      8.347063              21           0   224.20731      3355.3424      24.573402      13.819548      0.18653113    -7.1907726     -0.039358391   -0.13689084    -0.074806265  
       400   24.592331      0.99775385     6.8057067      4              1.0152971      8.3019044             27           0   186.85379      3329.7115      24.597405      13.811478      0.1947323     -7.2005032     -0.06665944    -0.04156987     0.026219625  
       500   24.554565      1.0153327      6.8006622      5              1.2773795      8.3232206             34           0   214.64481      3389.7215      24.573919      13.824816      0.18803606    -7.21219       -0.060676988    0.031037357   -0.084990177  
       600   24.511496      1.0339874      6.7493184      6              1.5341415      8.2998507             41           0   236.26833      3429.1208      24.531669      13.827476      0.18602401    -7.2641813     -0.036918923    0.012314556    0.089247321  
       700   24.471083      1.0089031      6.744894       7              1.7928055      8.2578107             48           0   185.94808      3343.5637      24.492954      13.821045      0.19319927    -7.2693505     -0.01982303    -0.044100775    0.011266945  
       800   24.419055      1.0042216      6.7281804      8              2.0504575      8.2340769             55           0   182.81755      3417.1784      24.443439      13.829344      0.19979615    -7.3009595      0.075429251   -0.062950859    0.041590351  
       900   24.384849      1.0281481      6.661202       9              2.3082947      8.2029779             62           0   253.88189      3318.9468      24.401182      13.791704      0.17903106    -7.3095329     -0.10517235    -0.020694843   -0.067855796  
      1000   24.337339      0.99221504     6.6881972      10             2.5602288      8.1760891             68           0   224.93607      3364.609       24.361779      13.815819      0.18932185    -7.3169434     -0.036840647    0.038391657   -0.016172059  
      1100   24.29228       0.98713044     6.7021012      11             2.8207438      8.1823684             75           0   195.86261      3428.3844      24.312665      13.836072      0.18604946    -7.3200201      0.052334724    0.012196491   -0.099692403  
      1200   24.274931      1.0078496      6.6808304      12             3.0740213      8.1921673             81           0   181.56445      3385.3899      24.280799      13.818045      0.18990828    -7.3271232      0.049760437   -0.026239514   -0.12234349   
      1300   24.274022      0.99964745     6.6811386      13             3.3322555      8.1801759             88           0   254.64539      3399.5225      24.275016      13.819688      0.17975217    -7.3183014     -0.0099897269  -0.031612485    0.021600994  
      1400   24.259253      0.98430117     6.6952748      14             3.589217       8.1712993             95           0   194.74035      3413.3483      24.265517      13.834166      0.18708476    -7.3259762      0.011051621    0.0055743362   0.014819843  
      1500   24.25253       1.0129061      6.754463       15             3.8419568      8.2733825            101           0   205.83273      3431.3649      24.257093      13.832741      0.18610244    -7.2643807      0.027542414    0.011149497   -0.028491114  
      1600   24.252452      1.0326625      6.6864186      16             4.0997671      8.2349641            108           0   243.0267       3358.1396      24.249181      13.821308      0.19218918    -7.3270789     -0.014773326    0.027615203    0.026787324  
      1700   24.288464      1.0009461      6.6851469      17             4.3583059      8.1861317            115           0   199.21341      3325.6652      24.267574      13.797846      0.18893702    -7.3016362      0.069465991    0.080183237    0.024080978  
      1800   24.337795      1.0026935      6.7113538      18             4.6114888      8.2149589            121           0   213.00797      3400.8127      24.315929      13.815826      0.18903313    -7.2935053     -0.040866633   -0.071496114    0.087812439  
      1900   24.371361      1.0099501      6.7521177      19             4.8760283      8.2666044            129           0   226.80343      3418.5418      24.355464      13.831843      0.18224621    -7.261972      -0.026892781   -0.12100519    -0.0093159903 
      2000   24.37259       1.0163819      6.7478985      20             5.1292054      8.2720301            135           0   170.43021      3362.3238      24.375403      13.820346      0.1955804     -7.2680279     -0.035244161   -0.097424199    0.15588992   
      2100   24.341652      1.0110218      6.7486333      21             5.3898719      8.2647272            142           0   262.52528      3389.7272      24.357286      13.827153      0.19950756    -7.2780272      0.051529526    0.049210836    0.05221904   
      2200   24.330295      1.0337049      6.7390761      22             5.647463       8.2891848            149           0   189.0099       3383.2012      24.332858      13.815368      0.19978468    -7.2760765      0.0060269761   0.032756499    0.14993459   
      2300   24.333157      1.0065192      6.7502066      23             5.898917       8.2595485            155           0   206.04432      3416.9899      24.331459      13.834932      0.19787917    -7.2826042      0.026454727    0.068678997    0.037937813  
      2400   24.358834      0.99986947     6.7546807      24             6.1610925      8.2540509            163           0   185.66262      3351.5965      24.343481      13.81653       0.1986909     -7.2605405      0.046813173   -0.036339062    0.064927409  
      2500   24.39366       0.99091374     6.790519       25             6.4151111      8.2764595            169           0   224.56751      3460.9726      24.376869      13.851472      0.18978132    -7.2507343     -0.069075688   -0.0036762729  -0.036652644  
      2600   24.406071      0.98931185     6.7583625      26             6.6735432      8.2419009            176           0   183.19154      3367.374       24.403055      13.804578      0.20655169    -7.2527669     -0.062325954    0.10126874     0.18896147   
      2700   24.387007      1.0038646      6.7751631      27             6.9296446      8.2805242            182           0   201.94335      3402.6895      24.399348      13.829997      0.19753114    -7.2523651      0.038202986   -0.093314411    0.018843318  
      2800   24.336764      1.0068033      6.7369547      28             7.1871343      8.2467227            189           0   207.92624      3391.6114      24.363631      13.819546      0.19875146    -7.2813423     -0.076153873   -0.045715315   -0.15089264   
      2900   24.272457      1.0248974      6.7213369      29             7.4448321      8.2582382            196           0   202.39135      3372.5588      24.304499      13.809071      0.20138945    -7.2891237     -0.0052796488   0.068588308   -0.17596666   
      3000   24.221177      1.0321046      6.6874984      30             7.7038557      8.2352072            203           0   203.54721      3382.3108      24.244984      13.811228      0.18134405    -7.3050736      0.077298462    0.041569118    0.12491123   
      3100   24.206532      0.99818375     6.7052189      31             7.9578337      8.2020613            209           0   228.27983      3438.9838      24.209356      13.839081      0.19958458    -7.333447       0.016965907   -0.040848294   -0.15209564   
      3200   24.215361      1.0026954      6.7073858      32             8.2157434      8.2109937            216           0   214.45035      3436.668       24.209734      13.826221      0.19440645    -7.3132421      0.032665393   -0.033021381    0.060758821  
      3300   24.229518      1.0007857      6.7315651      33             8.4685068      8.2323092            222           0   199.54777      3324.6691      24.222205      13.806787      0.19991597    -7.2751383      0.04484516     0.069442761    0.070453521  
      3400   24.23703       0.98705631     6.7044271      34             8.7220112      8.1845831            228           0   202.27635      3418.6861      24.235956      13.816874      0.19532293    -7.3077702     -0.03841632    -0.078700572    0.050330757  
      3500   24.21704       0.99754204     6.6775806      35             8.9796468      8.1734607            235           0   176.08154      3410.3443      24.228364      13.815511      0.18967694    -7.3276076      0.070043223   -0.011040446   -0.057236083  
      3600   24.197224      1.0028659      6.7070637      36             9.2376018      8.2109272            242           0   280.49377      3359.3326      24.207104      13.816318      0.20102914    -7.310283       0.042625553    0.084296988   -0.046591407  
      3700   24.190743      1.0032335      6.6991045      37             9.4973896      8.2035194            249           0   202.95308      3363.1287      24.191405      13.814096      0.19680783    -7.3117993      0.077275455    0.07753173    -0.072806448  
      3800   24.223008      0.98990973     6.6726651      38             9.7583517      8.1571001            256           0   209.11315      3338.354       24.20582       13.803721      0.18804042    -7.3190963     -0.030104422   -0.02189814    -0.068959183  
      3900   24.237847      1.0051755      6.6587854      39             10.011341      8.1661124            262           0   209.92086      3325.1449      24.23287       13.797746      0.18735935    -7.3263196     -0.0021923493  -0.0021530421  -0.21376693   
      4000   24.245039      0.98818499     6.6930963      40             10.270102      8.1749449            269           0   198.7182       3347.6769      24.241444      13.802338      0.1881869     -7.297429      -0.010740127   -0.015935494    0.07373106   
      4100   24.232368      0.98287635     6.6979634      41             10.521815      8.1718513            275           0   207.64605      3361.7717      24.241131      13.809346      0.19168659    -7.3030695      0.029066965   -0.070015021   -0.042556738  
      4200   24.192225      1.0320595      6.6997991      42             10.779641      8.2474404            282           0   228.08844      3396.5443      24.214538      13.831212      0.19616147    -7.3275746      0.045518856   -0.10417359    -0.072928717  
      4300   24.148778      1.0191015      6.7011683      43             11.037429      8.2293783            289           0   238.14518      3424.4873      24.168307      13.818672      0.19127246    -7.3087761      0.062983704    0.016218078   -0.034800781  
      4400   24.12049       0.99517507     6.6840172      44             11.291776      8.1763478            295           0   156.90616      3354.1205      24.136357      13.820422      0.19943676    -7.3358415      0.036355306    0.028211815    0.05990766   
      4500   24.070173      1.0085127      6.6437631      45             11.550937      8.1560945            302           0   186.22393      3380.5548      24.096308      13.822025      0.19220148    -7.3704634      0.038216585    0.027357865    0.061322347  
      4600   24.023288      0.9977723      6.6447006      46             11.811646      8.140926             309           0   196.05447      3351.0587      24.04334       13.813644      0.19209199    -7.3610353      0.072659237    0.074783955   -0.044779176  
      4700   24.006899      1.0083996      6.6041786      47             12.071091      8.1163403            316           0   163.18945      3326.8328      24.014581      13.806322      0.18218293    -7.3843259      0.088423564    0.12410854    -0.028967461  
      4800   24.009769      0.9895069      6.627369       48             12.330314      8.1111998            323           0   173.92512      3362.8154      24.00776       13.818522      0.18395557    -7.3751091      0.056259566   -0.013988156    0.077988683  
      4900   24.015476      1.0075774      6.601709       49             12.58342       8.1126377            329           0   200.60172      3391.9194      24.012476      13.825174      0.18881849    -7.4122835      0.0054676614  -0.062005328   -0.088453269  
      5000   24.014756      0.98224163     6.5996381      50             12.843107      8.0725742            336           0   190.5487       3414.9518      24.016037      13.819193      0.18831282    -7.407868       0.0066316833  -0.031949429   -0.016299376  
      5100   24.008562      0.99812722     6.6095695      51             13.10176       8.1063271            343           0   205.88623      3413.838       24.011957      13.831644      0.17702615    -7.399101       0.0096799604  -0.023423861    0.086501988  
      5200   24.010265      1.0270042      6.6005537      52             13.355012      8.1406144            349           0   234.7762       3391.3333      24.007826      13.820091      0.18571736    -7.4052542      0.046664993   -0.018701055    0.023513728  
      5300   24.025582      1.0139378      6.6007017      53             13.612281      8.1211683            356           0   186.39849      3435.0529      24.018427      13.839089      0.18250576    -7.4208927      0.011990959    0.0055263195  -0.05213457   
      5400   24.030679      1.0021738      6.6070127      54             13.874581      8.1098384            363           0   180.15471      3376.4903      24.030526      13.814573      0.18899457    -7.3965553      0.029739013   -0.089566423   -0.12597102   
      5500   24.005843      1.0176142      6.5863019      55             14.133995      8.1122815            370           0   235.40954      3410.675       24.019351      13.830322      0.18735762    -7.4313776      0.051368804   -0.073621529    0.10514933   
      5600   23.984199      1.021506       6.5797706      56             14.388409      8.1115862            376           0   225.99987      3335.8638      23.993057      13.81117       0.17876178    -7.4101615     -0.0090899239   0.012510619   -0.090865186  
      5700   23.975229      1.0291676      6.5777722      57             14.647521      8.121077             383           0   273.07711      3419.314       23.978945      13.814924      0.18531996    -7.422472       0.088800116    0.017115844    0.22339682   
      5800   23.993605      1.0256244      6.5807737      58             14.902115      8.1187651            389           0   224.62334      3366.0994      23.98098       13.817329      0.17962041    -7.4161755     -0.012695867   -0.040671739   -0.04683707   
      5900   24.035073      1.0116793      6.6144074      59             15.165287      8.1314872            397           0   170.14948      3367.2696      24.013153      13.806899      0.18659949    -7.3790915      0.049217888   -0.10723138     0.042400284  
      6000   24.096335      0.99804136     6.6403945      60             15.418204      8.1370234            403           0   192.87926      3330.0163      24.065999      13.798193      0.19088082    -7.3486795     -0.081869556   -0.041630467   -0.21858423   
      6100   24.142039      1.0252207      6.644227       61             15.681793      8.1816131            411           0   166.71104      3357.9186      24.121073      13.809686      0.17629731    -7.3417566     -0.04224189     0.042989436   -0.0059269136 
      6200   24.163163      1.0066141      6.6727547      62             15.937865      8.1822389            418           0   197.33071      3357.4883      24.155462      13.816499      0.18602116    -7.3297651     -0.059025885   -0.055567125   -0.027952594  
      6300   24.144404      1.0061531      6.6382911      63             16.195807      8.147084             425           0   204.68847      3326.4318      24.157925      13.825261      0.18502548    -7.3719952     -0.086117445   -0.068999213   -0.14058508   
      6400   24.090396      1.0156948      6.6346412      64             16.474464      8.1577426            432           0   183.23487      3344.359       24.117931      13.816314      0.1863058     -7.3679782      0.023802758    0.0055090907   0.0020597654 
      6500   24.025148      0.98740388     6.6091186      65             16.734355      8.0897959            439           0   214.81923      3396.6723      24.058502      13.808884      0.18139813    -7.3811633      0.027503951    0.029391733   -0.096425351  
      6600   23.94686       0.99089031     6.5717734      66             16.988934      8.0576788            445           0   197.19092      3349.5579      23.985535      13.817804      0.1845088     -7.4305399      0.085139892    0.022667653   -0.067182069  
      6700   23.88191       1.0150359      6.5751108      67             17.249488      8.0972241            452           0   243.73869      3507.2917      23.913449      13.832285      0.19212474    -7.4492987      0.0744725     -0.029930127   -0.078610777  
      6800   23.854459      0.99372134     6.593925       68             17.504078      8.0840757            458           0   191.32411      3402.6904      23.863667      13.815746      0.19396889    -7.4157898      0.033585582    0.012284462    0.053305799  
      6900   23.869088      1.0056722      6.5432811      69             17.768988      8.0513529            466           0   220.94453      3363.2643      23.856825      13.809998      0.17586518    -7.4425826     -0.031471127   -0.0055020467  -0.1074935    
      7000   23.905553      0.98453992     6.5805308      70             18.024386      8.0569134            472           0   175.37756      3404.7102      23.888673      13.833511      0.17912564    -7.4321055     -0.054851853    0.011943632    0.13759185   
      7100   23.932846      0.98124471     6.5793259      71             18.283894      8.0507671            479           0   275.71909      3395.5205      23.91994       13.82319       0.18004161    -7.4239056     -0.028850579   -0.047612596   -0.10150651   
      7200   23.935423      0.99243121     6.622788       72             18.541018      8.111004             486           0   217.48587      3440.3576      23.937078      13.824008      0.18657932    -7.3877989      0.029184313   -0.050698923    0.020957101  
      7300   23.912694      0.99992345     6.5554555      73             18.800386      8.0549067            493           0   181.24604      3443.2852      23.925262      13.81913       0.17626359    -7.4399378      0.008325577    0.0052157474  -0.012650468  
      7400   23.902071      0.99152253     6.545728       74             19.053127      8.0325815            499           0   192.79367      3413.1016      23.90414       13.820962      0.17810298    -7.4533369      0.038981162    0.037135229   -0.22192554   
      7500   23.920697      1.0067074      6.5715368      75             19.317657      8.0811609            507           0   294.71589      3433.6779      23.909976      13.81754       0.1900905     -7.4360935      0.053484224    0.02281702     0.048636057  
      7600   23.960803      1.0035436      6.5440754      76             19.57065       8.0489552            513           0   188.78308      3349.7433      23.941406      13.829025      0.17500914    -7.4599591     -0.12390583    -0.0021033327  -0.071825207  
      7700   23.992148      1.003944       6.5918531      77             19.830824      8.0973334            520           0   174.72744      3425.8041      23.97718       13.826821      0.1788705     -7.413838      -0.0025812029   0.017438505    0.011064854  
      7800   24.026628      1.0334282      6.5978064      78             20.089678      8.1475002            527           0   234.17276      3343.4123      24.007732      13.802254      0.18427257    -7.38872        0.11981085     0.043428565    0.056923008  
      7900   24.07582       1.0112215      6.6246267      79             20.347273      8.14102              534           0   197.7489       3391.8779      24.053976      13.811751      0.18103834    -7.3681624      0.0048870819  -0.0073540008  -0.021793819  
      8000   24.122764      0.98165553     6.6485849      80             20.604909      8.1206421            541           0   186.17075      3361.8653      24.098416      13.809009      0.19307586    -7.3535001     -0.11973101    -0.080444187   -0.041037337  
      8100   24.13582       1.0229794      6.6490293      81             20.862572      8.1830545            548           0   189.78669      3408.4891      24.131785      13.820208      0.18966943    -7.3608479      0.0012759699   0.045557994    0.13564682   
      8200   24.142211      1.0091625      6.6750844      82             21.113626      8.1883902            554           0   188.57895      3390.3121      24.138749      13.825027      0.18159018    -7.3315324     -0.014680302    0.040697874   -0.14633987   
      8300   24.133702      1.0157079      6.6683494      83             21.371904      8.1914703            561           0   201.93821      3441.6354      24.139         13.843993      0.19947114    -7.3751147     -0.05583331    -0.0033455304  -0.03708971   
      8400   24.128539      1.0056329      6.6274972      84             21.629448      8.1355102            568           0   229.02378      3425.3413      24.132769      13.805904      0.18661491    -7.3650215      0.013001654   -0.020172311    0.036590626  
      8500   24.092759      1.0111077      6.6035309      85             21.889752      8.1197536            575           0   184.95628      3386.191       24.115578      13.81841       0.18356577    -7.3984452     -0.054387155   -0.076401593    0.0043967585 
      8600   24.027012      1.0242612      6.6188023      86             22.156048      8.1547496            582           0   187.61897      3458.5579      24.057872      13.84081       0.17906246    -7.4010698     -0.019224075    0.096299874   -0.038564514  
      8700   23.987382      1.0147017      6.5828823      87             22.415517      8.1044944            588           0   212.24216      3379.0988      24.00443       13.795477      0.18045922    -7.3930536      0.033393586    0.074602504   -0.060061122  
      8800   23.964401      0.99781437     6.598123       88             22.679323      8.0944115            595           0   247.40508      3476.9663      23.974002      13.853582      0.18706227    -7.4425214     -0.071735561   -0.015531306    0.020692303  
      8900   23.955499      1.0103956      6.5405233      89             22.94805       8.055678             602           0   241.35393      3442.4561      23.958937      13.818007      0.17010837    -7.4475925      0.022755831   -0.039488898    0.089433891  
      9000   23.954718      0.9947745      6.5566432      90             23.207633      8.0483732            608           0   184.69444      3378.1278      23.956452      13.807504      0.17825577    -7.4291166     -0.081612544    0.033131905    0.02926397   
      9100   23.936067      1.0036759      6.5310867      91             23.463482      8.0361649            614           0   193.35539      3386.7436      23.945286      13.814803      0.17658256    -7.4602988     -0.030950384   -0.030361674   -0.078124135  
      9200   23.921935      0.99351757     6.5465961      92             23.727165      8.0364413            621           0   190.85171      3383.3983      23.927358      13.820208      0.18269542    -7.4563069      0.0088476038   0.038527945    0.050305959  
      9300   23.919917      0.97325029     6.567955       93             23.981483      8.027408             627           0   208.28714      3448.6788      23.921564      13.826032      0.17414012    -7.4322175     -0.075134698   -0.015288978   -0.034025015  
      9400   23.896706      1.0079607      6.5020453      94             24.247164      8.0135489            635           0   179.00863      3380.2861      23.909886      13.806988      0.18360366    -7.4885465     -0.096913239    0.0014941665  -0.070460459  
      9500   23.878269      0.97652706     6.5476362      95             24.511226      8.012003             642           0   206.5902       3433.2019      23.885711      13.825721      0.18079955    -7.4588839      0.061672959    0.04097514     0.12841883   
      9600   23.889393      0.99095403     6.5105716      96             24.775632      7.9965725            649           0   195.11348      3415.7916      23.880361      13.811765      0.17517767    -7.4763707      0.064264265    0.039403534    0.049202946  
      9700   23.950485      0.98239537     6.5740712      97             25.032007      8.0472379            655           0   191.00783      3404.649       23.915281      13.830312      0.18355596    -7.4397971      0.071563176    0.011389725   -0.039834813  
      9800   24.041051      0.99506581     6.5926906      98             25.288786      8.0848574            661           0   169.36187      3332.3991      23.996635      13.81088       0.19198682    -7.4101759     -0.075206926   -0.044514994   -0.042331083  
      9900   24.10893       0.99280593     6.6068898      99             25.548887      8.0956678            668           0   205.27064      3380.4191      24.078295      13.835654      0.17339437    -7.4021588     -0.086073747   -0.12928007     0.026201329  
     10000   24.125023      1.0218672      6.6352205      100            25.80979       8.1675778            674           0   203.48151      3395.6368      24.120464      13.821344      0.17539482    -7.3615185     -0.0010648266   0.017006258   -0.068271553  
     10100   24.108986      0.99674196     6.6176627      101            26.076987      8.1123431            681           0   191.80742      3409.7047      24.120752      13.833258      0.18344976    -7.3990446     -0.0086743193  -0.0023503883   0.11409389   
     10200   24.067738      1.0104886      6.5815395      102            26.344685      8.0968338            688           0   222.48632      3407.4335      24.089341      13.808263      0.1895529     -7.4162763      0.093370796   -0.027636399    0.13276069   
     10300   24.025878      0.98207875     6.6071665      103            26.601894      8.0798584            694           0   202.38182      3423.6931      24.048723      13.825455      0.18742586    -7.4057148      0.015355047   -0.01230598    -0.012225307  
     10400   23.951514      0.99875312     6.532246       104            26.868948      8.0299422            701           0   184.9313       3424.5599      23.991048      13.813412      0.18061967    -7.4617855      0.027241495    0.014954278    0.071791825  
     10500   23.876905      0.97971105     6.5243256      105            27.133081      7.9934669            707           0   255.01545      3452.8196      23.911676      13.81627       0.17562457    -7.4675692      0.015473548    0.03798707     0.030442197  
     10600   23.828749      0.98042027     6.5128198      106            27.399931      7.9830247            714           0   199.22667      3416.8727      23.849674      13.815505      0.17440868    -7.4770938     -0.014085331    0.11919587     0.12824306   
     10700   23.83019       0.9895909      6.5215892      107            27.663114      8.005546             720           0   248.95484      3445.3023      23.82426       13.823104      0.17299608    -7.4745106      0.10464293     0.0064800367  -0.013601607  
     10800   23.889306      0.99066728     6.546073       108            27.924451      8.031644             727           0   219.23066      3458.3575      23.856288      13.823787      0.17357712    -7.4512908     -0.0057980695  -0.026417323   -0.082356476  
     10900   23.956389      1.0237134      6.546947       109            28.186894      8.0820729            734           0   229.29949      3353.6009      23.923555      13.816346      0.18418356    -7.4535824      0.013327335   -0.0567038     -0.13900485   
     11000   24.013181      1.002348       6.607996       110            28.442597      8.111083             740           0   227.88999      3406.3641      23.987382      13.823602      0.18088101    -7.3964866      0.068267811   -0.039708646   -0.099583035  
     11100   24.048361      1.0245788      6.6115212      111            28.702258      8.1479447            747           0   201.06144      3405.4645      24.030412      13.814825      0.19437168    -7.3976759      0.028935105    0.025120173    0.054819098  
     11200   24.073651      0.97383318     6.6366604      112            28.960062      8.0969875            753           0   201.23744      3309.0595      24.063831      13.793012      0.18926024    -7.345612      -0.067371717   -0.060899271   -0.11510421   
     11300   24.049864      0.98566293     6.5778176      113            29.222347      8.0558842            760           0   186.77574      3402.9466      24.065163      13.821175      0.18298138    -7.4263387     -0.011816609   -0.028939243    0.20027812   
     11400   24.000639      1.0010891      6.5898003      114            29.48206       8.0909994            766           0   165.87943      3395.849       24.026342      13.810762      0.1885506     -7.409512       0.0072602288   0.046108123    0.16665957   
     11500   23.949584      0.98977807     6.5775913      115            29.743402      8.0618288            773           0   184.59173      3437.7642      23.973957      13.825846      0.17715219    -7.4254064      0.026755505    0.047696856    0.14932698   
     11600   23.917248      1.0103667      6.5502591      116            30.004776      8.0653706            779           0   220.54738      3386.5278      23.931674      13.820763      0.17566337    -7.4461676     -0.069362508   -0.013234838   -0.003927961  
     11700   23.894358      1.0009272      6.5682015      117            30.271706      8.0691578            786           0   207.79169      3456.3224      23.903586      13.80831       0.17937636    -7.419485      -0.010651201    0.086738851    0.025793952  
     11800   23.894114      1.012846       6.559937       118            30.529394      8.0787664            792           0   263.42252      3440.1573      23.89292       13.833401      0.17504519    -7.4485087     -0.073566225    0.033312473   -0.043992365  
     11900   23.910928      1.0161855      6.5520625      119            30.792473      8.0758997            799           0   174.60435      3399.9634      23.901002      13.823328      0.18080735    -7.4520727      0.034513841   -0.010860435    0.097819449  
     12000   23.9436        1.0024         6.545173       120            31.050096      8.0483379            806           0   276.46468      3361.2975      23.927656      13.814271      0.17358945    -7.4426875     -0.049935106   -0.010313323   -0.076515566  
     12100   23.962148      1.0012253      6.5755041      121            31.304812      8.0769075            812           0   184.70103      3375.8746      23.951736      13.806068      0.17613169    -7.4066957      0.062574419    0.0040759326  -0.06891477   
     12200   23.980155      0.99369809     6.5546249      122            31.563949      8.0447408            819           0   233.033        3345.2081      23.973977      13.804276      0.17294756    -7.4225984     -0.0067276671  -0.029581216   -0.019194502  
     12300   23.967005      0.97717606     6.5747241      123            31.843076      8.040064             825           0   185.78154      3306.5191      23.975781      13.803499      0.18063301    -7.4094078      0.032715474    0.035609618   -0.14475842   
     12400   23.937784      1.0070128      6.5586297      124            32.104003      8.0687119            832           0   193.31249      3451.6279      23.952828      13.820466      0.19192323    -7.4537596      0.034525517   -0.051931713    0.104041     
     12500   23.919409      1.0044072      6.5437183      125            32.358402      8.0498931            838           0   269.65992      3386.3274      23.927561      13.830432      0.18593883    -7.4726524     -0.082629398   -0.041388127   -0.071116134  
     12600   23.899123      1.001348       6.5601001      126            32.618624      8.0616875            845           0   193.05815      3339.087       23.909364      13.822484      0.17264142    -7.435025       0.061413972   -0.062815518   -0.15844361   
     12700   23.880852      0.99828286     6.5888273      127            32.878952      8.0858183            852           0   182.79917      3403.0777      23.887879      13.83491       0.17912086    -7.4252031      0.05090262     0.055666368    0.081292821  
     12800   23.866673      0.98311079     6.5385865      128            33.135959      8.012826             858           0   192.61204      3329.7549      23.876076      13.808415      0.17282621    -7.4426545     -0.003612003   -0.024318881   -0.052543698  
     12900   23.826077      0.99455641     6.5679541      129            33.392467      8.0593571            864           0   192.58134      3396.5245      23.845662      13.819444      0.17155028    -7.4230402      0.029757952    0.12604906     0.023837853  
     13000   23.814665      0.98883413     6.5626282      130            33.653896      8.0454502            871           0   200.30417      3384.1166      23.819517      13.816655      0.17929064    -7.4333177      0.015247894   -0.0084930029  -0.1089821    
     13100   23.82302       0.98671904     6.5806039      131            33.909719      8.0602542            877           0   196.77552      3476.3067      23.815784      13.840997      0.17527685    -7.4356699      0.028936994   -0.094431866    0.012760015  
     13200   23.83616       0.97515248     6.5409735      132            34.166019      8.003279             883           0   226.32972      3337.8619      23.830002      13.80725       0.18720372    -7.4534805      0.0022609759  -0.0031747707   0.0017562836 
     13300   23.843007      1.0086053      6.5230309      133            34.428481      8.0355011            890           0   176.73732      3353.2078      23.840605      13.804131      0.17494873    -7.4560493      0.059872494    0.044460656   -0.16047029   
     13400   23.852448      1.0089348      6.5584269      134            34.688199      8.0713912            896           0   195.15261      3362.8582      23.848011      13.830945      0.1792679     -7.4517861      0.033824661   -0.080630559   -0.079158203  
     13500   23.851222      1.0156371      6.573103       135            34.952007      8.0961179            903           0   214.70616      3433.8339      23.852022      13.827674      0.18339286    -7.4379638      0.053937625   -0.054367271   -0.097023296  
     13600   23.871887      0.98840478     6.5665544      136            35.212306      8.0487326            909           0   198.10953      3326.4713      23.857824      13.795786      0.18445441    -7.4136865      0.0068712044   0.029872722    0.070640924  
     13700   23.908433      0.99107331     6.5455422      137            35.474072      8.031722             916           0   221.38813      3387.0499      23.890936      13.803704      0.1854889     -7.4436507     -0.13600641    -0.075480778   -0.071230567  
     13800   23.924788      1.0124483      6.5460749      138            35.735301      8.0643079            923           0   187.41406      3420.9791      23.91755       13.819939      0.17678459    -7.4506489      0.0054622034  -0.10157004     0.092407119  
     13900   23.934108      0.9800782      6.5587804      139            35.991494      8.0284724            929           0   199.59196      3398.7502      23.929693      13.813974      0.17662597    -7.4318197     -0.033100352   -0.057517996    0.1059459    
     14000   23.912914      1.01436        6.5319806      140            36.254171      8.0530804            936           0   223.3121       3374.1784      23.927856      13.809472      0.17436744    -7.451859      -4.1114529e-05 -0.010274973    0.062041291  
     14100   23.872474      0.99829354     6.5380504      141            36.519771      8.0350574            943           0   190.33895      3379.09        23.891944      13.812755      0.18507621    -7.4597804     -0.0049337363  -0.033151234    0.013279904  
     14200   23.835519      1.0056334      6.5024789      142            36.774938      8.0104926            949           0   175.32773      3380.9339      23.853867      13.807631      0.18200638    -7.4871589     -0.048249652    0.028922362   -0.12174      
     14300   23.825591      1.0059823      6.5133334      143            37.030543      8.0218702            955           0   193.93865      3308.2013      23.8254        13.803667      0.16934245    -7.4596763      0.0085355435   0.047447234   -0.023244955  
     14400   23.846689      0.98787753     6.5097148      144            37.293979      7.9911023            962           0   190.92972      3378.3908      23.835842      13.803479      0.18005222    -7.4738163     -0.052451502   -0.026802371   -0.082761315  
     14500   23.850227      0.97352842     6.5625885      145            37.554576      8.0224586            969           0   177.24673      3426.5137      23.850841      13.824851      0.17023832    -7.4325013     -0.034160813    0.020468252   -0.032665385  
     14600   23.853391      1.0105154      6.5198245      146            37.815778      8.035159             976           0   217.68947      3401.2094      23.847823      13.813561      0.17375562    -7.4674926      0.028896639   -0.056207763   -0.19084325   
     14700   23.882032      0.99263745     6.5034138      147            38.071395      7.9919391            982           0   214.64754      3399.2139      23.866463      13.812137      0.17688557    -7.4856084     -0.023668669   -0.019443987   -0.05647244   
     14800   23.891934      0.96941148     6.5036023      148            38.333208      7.9572988            989           0   211.6084       3348.9873      23.890469      13.805442      0.17255046    -7.4743902     -0.050948157   -0.13612301     0.0041301143 
     14900   23.857403      1.0189819      6.512522       149            38.608584      8.0405526            995           0   204.02455      3424.0837      23.87704       13.81985       0.16926924    -7.4765968      0.063834644    0.1305974      0.03190119   
     15000   23.838844      0.98909696     6.5353596      150            38.871871      8.0185757           1002           0   215.00806      3424.6213      23.844949      13.832592      0.17742859    -7.4746613      0.0069915715  -0.0067312061   0.060417972  
     15100   23.828767      0.99597418     6.5009962      151            39.133282      7.9945252           1009           0   171.81318      3401.519       23.834212      13.822114      0.16203768    -7.4831558      0.00023387425  0.0058678566  -0.0049857925 
     15200   23.799119      1.0047031      6.493004       152            39.394605      7.9996227           1016           0   185.27368      3312.9812      23.816145      13.811252      0.16333545    -7.4815831      0.013541048   -0.023369739   -0.28967414   
     15300   23.740337      0.99914947     6.4624546      153            39.65561       7.9607452           1023           0   169.22543      3418.9813      23.769728      13.811185      0.17024708    -7.5189775      0.034474727    0.044276595    0.16183417   
     15400   23.708171      1.0005668      6.4464738      154            39.915821      7.9468897           1029           0   210.21319      3388.798       23.720003      13.815813      0.17185091    -7.54119        0.089442028   -0.013254284    0.0025498118 
     15500   23.710781      1.0192184      6.4302061      155            40.173178      7.9585914           1035           0   188.22267      3358.893       23.706999      13.812816      0.16500562    -7.5476155      0.040353983    0.048179468    0.02460641   
     15600   23.748032      1.0199805      6.4738407      156            40.436948      8.0033687           1042           0   187.04384      3373.9048      23.727873      13.808077      0.16922676    -7.5034634      0.0080712603   0.039589268    0.014958497  
     15700   23.810862      1.0143365      6.4972311      157            40.698396      8.0182957           1049           0   172.05428      3293.097       23.779425      13.808427      0.17487987    -7.4860753      0.050156793    0.0012501533  -0.20018129   
     15800   23.869165      1.0091015      6.5513403      158            40.955473      8.0645546           1055           0   162.51178      3402.9884      23.842265      13.827401      0.18393824    -7.4599994     -0.082056004   -0.072472221   -0.026565814  
     15900   23.900918      0.99435972     6.5330669      159            41.216497      8.0241749           1062           0   186.60527      3354.5449      23.885364      13.806684      0.17189648    -7.4455132     -0.03483651    -0.096303045   -0.019845236  
     16000   23.901975      1.0035694      6.5031363      160            41.479425      8.0080549           1069           0   202.06621      3282.5364      23.907256      13.808809      0.1728446     -7.4785178     -0.053112733   -0.11433398    -0.26132212   
     16100   23.862645      0.99865218     6.4925968      161            41.743039      7.9901416           1076           0   200.154        3471.5552      23.88202       13.817169      0.17030991    -7.494882       0.0036236634   0.036638959    0.039147022  
     16200   23.827556      0.98777643     6.5171678      162            42.00036       7.9984037           1082           0   190.62814      3464.6395      23.84279       13.819387      0.17464449    -7.4768637      0.085558492    0.060606224    0.23157166   
     16300   23.825584      0.9741592      6.4874252      163            42.262974      7.9482412           1089           0   230.48141      3394.4015      23.825135      13.818488      0.17097387    -7.5020366     -0.0042716711   0.12086009    -0.094824476  
     16400   23.845607      1.00156        6.5087193      164            42.520719      8.0106245           1095           0   209.96611      3437.4308      23.834325      13.833522      0.17354488    -7.4983472      0.044606449    0.035949581   -0.10274604   
     16500   23.857998      1.010482       6.4914888      165            42.781799      8.0067732           1102           0   163.62999      3389.5253      23.854575      13.807616      0.17699741    -7.4931245      0.066429625   -0.098903469   -0.12822917   
     16600   23.855486      1.0124495      6.4704289      166            43.050436      7.9886637           1110           0   181.23692      3420.2863      23.856344      13.800821      0.17435882    -7.5047513     -0.0458667     -0.0885778      0.0091361615 
     16700   23.84732       1.0117134      6.480089       167            43.308223      7.99722             1116           0   262.35671      3417.1847      23.850783      13.824137      0.17193411    -7.5159821      0.016203666    0.014851316   -0.14378087   
     16800   23.859088      1.0214227      6.4874448      168            43.573459      8.0191355           1123           0   215.85706      3481.7752      23.851291      13.821558      0.17699393    -7.5111071     -0.048974048   -0.049549421   -0.003966904  
     16900   23.869892      1.0254577      6.4726948      169            43.83792       8.0104363           1130           0   167.39003      3389.1595      23.865501      13.82278       0.1591026     -7.5091877      0.03085855    -0.010614747    0.13196731   
     17000   23.863441      1.0026043      6.5186995      170            44.10061       8.0221707           1137           0   219.36926      3394.0321      23.868879      13.821565      0.16619784    -7.4690636      0.071464928   -0.047995515   -0.13142243   
     17100   23.842501      1.0095324      6.4782804      171            44.379401      7.9921409           1143           0   203.82958      3393.5483      23.852612      13.821884      0.16341822    -7.5070213      0.051308918    0.011787836    0.012761461  
     17200   23.816236      0.98141764     6.4486394      172            44.64112       7.9203399           1150           0   220.12382      3399.6756      23.831966      13.809297      0.17567946    -7.5363373     -0.015616487   -0.027640521    0.066897895  
     17300   23.752411      0.99460729     6.4065014      173            44.904148      7.8979807           1156           0   172.88159      3368.633       23.786941      13.819357      0.1579119     -7.5707672      0.078266072    0.01741565    -0.064811693  
     17400   23.693049      0.98792019     6.3934948      174            45.167514      7.8749463           1163           0   200.83275      3438.3458      23.719164      13.812113      0.16184328    -7.5804619      0.097088947   -0.021016324    0.20853386   
     17500   23.667902      0.99178015     6.4171483      175            45.425459      7.9043881           1169           0   191.17187      3454.4289      23.678271      13.815455      0.16866929    -7.5669756      0.059700383    0.10125667     0.11285149   
     17600   23.689783      0.99438078     6.4345373      176            45.687721      7.9256769           1176           0   214.72663      3437.7974      23.673388      13.835404      0.15995841    -7.5608252      0.074548992   -0.047010439   -0.12076385   
     17700   23.763251      1.0060582      6.4244831      177            45.94663       7.9331337           1183           0   208.08916      3447.0141      23.72431       13.822657      0.16327349    -7.561447       0.10074362     0.0020039674  -0.064779155  
     17800   23.850431      0.99240644     6.4537282      178            46.20572       7.9419071           1190           0   188.59375      3440.7792      23.808035      13.809045      0.17675633    -7.5320728     -0.074141305   -0.024029933    0.15168305   
     17900   23.89549       1.0161184      6.4838524      179            46.472309      8.007589            1197           0   177.24793      3353.9809      23.879101      13.807957      0.16201135    -7.4861161     -0.032635203   -0.04149995    -0.026577906  
     18000   23.897113      1.0122783      6.5444949      180            46.729908      8.062473            1203           0   183.70229      3392.8544      23.898111      13.816133      0.17821346    -7.4498517      0.0088615212   0.10348134     0.093084426  
     18100   23.887743      1.0146952      6.5313426      181            46.995977      8.052945            1210           0   217.95926      3348.8515      23.894501      13.813328      0.18164048    -7.463626       0.036146891   -0.033957689   -0.17167623   
     18200   23.894898      0.99906259     6.5376108      182            47.250927      8.035771            1216           0   218.46462      3400.182       23.889201      13.82377       0.17968487    -7.4658439     -0.087656635    0.015342343   -0.043150435  
     18300   23.869086      1.0171448      6.5485861      183            47.513457      8.0738618           1223           0   214.62468      3441.7105      23.886311      13.843985      0.1779831     -7.473382      -0.036569404    0.011492177   -0.010575767  
     18400   23.838189      1.0330012      6.503937       184            47.77099       8.0529905           1229           0   209.11476      3476.0034      23.849976      13.823036      0.17187203    -7.4909709      0.0013595387   0.082281569    0.024643987  
     18500   23.844499      1.0200095      6.4582081      185            48.029809      7.9877797           1236           0   177.18498      3415.3426      23.840709      13.817658      0.17760075    -7.5370506     -0.026492902   -0.020942259    0.077519642  
     18600   23.854571      0.99251933     6.4478748      186            48.285158      7.936223            1242           0   184.43539      3322.243       23.849528      13.800531      0.17731559    -7.5299717     -0.085706297   -0.0084673377  -0.21264517   
     18700   23.840216      0.99234149     6.4382588      187            48.546843      7.9263403           1248           0   216.67866      3377.9804      23.849365      13.804903      0.17060519    -7.5372499      0.0018132295   0.0016442035   0.067694072  
     18800   23.805171      0.97856788     6.4445599      188            48.811794      7.911987            1255           0   191.82867      3372.562       23.824519      13.80658       0.17377526    -7.5357951     -0.011527851    0.12925464    -0.10094633   
     18900   23.778711      1.0032369      6.4483224      189            49.067146      7.9527423           1261           0   215.7794       3384.1822      23.789256      13.801235      0.18116373    -7.5340767      0.034174008   -0.021844136   -0.11968701   
     19000   23.766566      0.98482483     6.4506482      190            49.333199      7.927458            1268           0   207.95912      3435.7096      23.772917      13.812842      0.18319925    -7.5453932      0.047796433   -0.054313671   -0.029669144  
     19100   23.738398      1.0115732      6.4540788      191            49.589025      7.9709996           1274           0   194.33904      3403.0836      23.753462      13.827587      0.16623628    -7.5397446     -0.0035452509  -0.024075698   -0.061388974  
     19200   23.711082      0.98020837     6.4664823      192            49.852026      7.9363694           1281           0   215.10598      3432.6326      23.723817      13.833884      0.17961236    -7.5470138      0.019695738   -0.055826014   -0.007285036  
     19300   23.672476      0.99924828     6.3951996      193            50.11079       7.8936383           1287           0   205.1541       3404.2136      23.691355      13.818406      0.1722936     -7.5954999      0.036594041   -0.012062548    0.092894501  
     19400   23.67023       1.023399       6.4124549      194            50.374308      7.9471092           1294           0   194.19823      3380.1818      23.667033      13.803085      0.1802259     -7.5708555      0.022028859   -0.043842017   -0.13434747   
     19500   23.701042      0.99971246     6.4157132      195            50.65599       7.914848            1301           0   164.13512      3387.6944      23.68419       13.811054      0.16059       -7.5559307     -0.073697423    0.0062739235  -0.098276754  
     19600   23.73662       1.0151118      6.4626792      196            50.919159      7.9849064           1308           0   197.02877      3408.6906      23.719382      13.823391      0.17051225    -7.5312239     -0.042267361   -0.015013343   -0.043670209  
     19700   23.765442      0.99789819     6.4943744      197            51.174597      7.9907885           1314           0   230.22655      3453.3003      23.753043      13.832876      0.18016177    -7.5186635     -0.019786473    0.092286354    0.21359963   
     19800   23.768953      1.006024       6.4707214      198            51.43936       7.9793207           1321           0   209.692        3426.9336      23.76976       13.836494      0.16755007    -7.533323      -0.10400545    -0.017091256    0.0087082693 
     19900   23.745352      1.0017498      6.492524       199            51.696643      7.994714            1327           0   196.07175      3412.8312      23.759496      13.820602      0.17176943    -7.4998477      0.034924626    0.10323142    -0.13699482   
     20000   23.726259      0.99694654     6.4243318      200            51.959038      7.9193189           1334           0   212.17889      3379.4932      23.733994      13.81253       0.17124454    -7.5594428     -0.03489007    -0.029402725   -0.13884088   
     20100   23.712514      0.9909827      6.4370777      201            52.222813      7.9231216           1340           0   226.59048      3445.6838      23.719024      13.82083       0.16349034    -7.547243       0.023040777    0.098768489    0.032658131  
     20200   23.720114      1.0082489      6.4750475      202            52.486319      7.9869833           1346           0   171.21506      3382.2084      23.715525      13.829936      0.18022169    -7.53511        0.034697669    0.013510831   -0.022629323  
     20300   23.712735      1.0151818      6.4489991      203            52.752231      7.9713312           1353           0   186.94667      3467.1048      23.719319      13.826103      0.16310847    -7.5402127     -0.074702169   -0.0086737785   0.084295735  
     20400   23.693425      1.0343891      6.4444466      204            53.014794      7.9955812           1360           0   227.44932      3402.6938      23.701606      13.80712       0.1695274     -7.5322009     -0.078771027    0.028357177   -0.1692146    
     20500   23.708482      1.0215721      6.4450642      205            53.278286      7.9769789           1367           0   195.69608      3442.8666      23.695753      13.834477      0.16569118    -7.5551039     -0.032481901    0.037470624    0.011441706  
     20600   23.752906      1.0169734      6.4798028      206            53.54566       8.0048215           1374           0   223.1253       3401.6224      23.729774      13.828274      0.16635977    -7.5148309     -0.088804329   -0.035758706   -0.14515724   
     20700   23.787548      1.031638       6.4722628      207            53.805195      8.019272            1380           0   219.35852      3330.4686      23.771743      13.824163      0.17549019    -7.5273903     -0.059336773    0.0077748917  -0.11263086   
     20800   23.81378       1.0047954      6.4900161      208            54.064662      7.9967731           1387           0   224.24211      3431.4746      23.801776      13.813556      0.17455934    -7.4980995     -0.0065458509   0.072153639    0.15465899   
     20900   23.828804      1.0021182      6.4804754      209            54.324603      7.9832176           1394           0   227.89209      3379.8524      23.825008      13.802596      0.18177248    -7.5038929     -0.064638125   -0.063351544    0.18551811   
     21000   23.798816      1.0251877      6.4610052      210            54.586621      7.9983417           1401           0   195.73423      3439.8915      23.816787      13.826579      0.176308      -7.5418821      0.029386917   -0.02137582     0.15999767   
     21100   23.743852      1.0126453      6.4433086      211            54.848699      7.961837            1408           0   194.24774      3399.9578      23.771633      13.821962      0.16813228    -7.5467852      0.065825963   -0.0061472963  -0.035025611  
     21200   23.700083      1.0120901      6.4230981      212            55.103562      7.940794            1414           0   201.0734       3420.814       23.720023      13.821287      0.16714938    -7.5653381      0.040989441   -0.024326493    0.0098031743 
     21300   23.66553       0.9814934      6.452503       213            55.365298      7.9243171           1420           0   184.35474      3455.6131      23.682215      13.828982      0.17489426    -7.5513737      0.099977188    0.047799897    0.027907654  
     21400   23.644415      0.99792665     6.4073889      214            55.63258       7.9038457           1427           0   200.44333      3438.2673      23.653184      13.822594      0.1666879     -7.5818934      0.028441465    0.10768991    -0.094966781  
     21500   23.66042       1.0199164      6.3833256      215            55.896696      7.9127576           1433           0   179.46561      3439.2029      23.649279      13.809102      0.17095199    -7.5967285      0.014925586    0.049790082    0.03198877   
     21600   23.713513      1.0229693      6.3646436      216            56.159217      7.8986536           1440           0   199.82222      3408.9262      23.684134      13.816578      0.16372935    -7.6156632     -0.081402951    0.066972255    0.10805737   
     21700   23.787212      0.995912       6.4009692      217            56.416144      7.8944049           1446           0   165.90633      3348.2514      23.751834      13.795516      0.17506544    -7.5696123     -0.096545244   -0.02850764     0.0044150029 
     21800   23.830519      0.99005491     6.4107997      218            56.677341      7.8954523           1453           0   210.27583      3402.8831      23.812831      13.806349      0.16296247    -7.5585121     -0.11977824    -0.098203641   -0.076502265  
     21900   23.81197       1.0303712      6.4268751      219            56.93438       7.9719847           1459           0   192.80711      3384.6031      23.825972      13.830865      0.16240166    -7.5663918     -0.01483517    -0.081384071   -0.030645996  
     22000   23.769226      1.0258037      6.4515442      220            57.199206      7.9898045           1466           0   197.98192      3489.3726      23.789524      13.83431       0.18092093    -7.5636865      0.11083127     0.0074850638   0.059508116  
     22100   23.74442       1.0424706      6.4074211      221            57.459903      7.9706745           1473           0   230.90162      3365.5967      23.754981      13.798984      0.16484788    -7.556411       0.008255849    0.05866309     0.0055908442 
     22200   23.740319      0.99212827     6.4294227      222            57.719555      7.9171845           1479           0   197.19809      3401.9265      23.740994      13.806698      0.16655798    -7.543833       0.021444661    0.059820538    0.0090402453 
     22300   23.743288      1.0288147      6.4286138      223            57.974781      7.9713893           1485           0   187.71408      3445.0058      23.742346      13.833909      0.16283723    -7.5681329     -0.034080035   -0.057587925    0.077771754  
     22400   23.739301      1.002926       6.4021977      224            58.237743      7.9061515           1492           0   228.4163       3460.4132      23.740745      13.819889      0.17455357    -7.5922444     -0.0014721431   0.019289773    0.20088506   
     22500   23.740074      1.0131978      6.3827015      225            58.523272      7.9020585           1499           0   198.35809      3427.33        23.74026       13.810663      0.16872538    -7.5966871      0.00084864626  0.023882298    0.19264966   
     22600   23.729663      1.0251487      6.3785016      226            58.782242      7.9157797           1505           0   240.47838      3385.5019      23.735338      13.80267       0.17631322    -7.6004819      0.017431271   -0.05624898     0.13003956   
     22700   23.719829      1.0002552      6.364681       227            59.043729      7.8646297           1512           0   170.34844      3404.0229      23.724641      13.811348      0.17232629    -7.6189928      0.0074374021  -0.018053527   -0.0056437243 
     22800   23.706598      1.0008823      6.3389085      228            59.306627      7.8397975           1519           0   251.82         3413.19        23.713252      13.815474      0.16616581    -7.642731      -0.056510818    0.015047504   -0.037330558  
     22900   23.698523      1.0055119      6.3360652      229            59.569718      7.8438967           1525           0   180.73897      3392.7957      23.701255      13.827768      0.16037046    -7.6520733      0.055536353   -0.037174641   -0.014521297  
     23000   23.714196      1.0030751      6.3408095      230            59.836746      7.8449868           1532           0   183.05905      3395.5521      23.70388       13.821352      0.16089916    -7.6414417      0.063127619   -0.018792303   -0.048911807  
     23100   23.752442      0.99233802     6.4013067      231            60.102914      7.889383            1539           0   222.50344      3411.0386      23.73288       13.825465      0.17420454    -7.5983625      0.086002186    0.02496814     0.0054720076 
     23200   23.787691      0.99875426     6.4052833      232            60.366853      7.9029812           1545           0   219.75045      3399.2409      23.771145      13.817129      0.16971271    -7.5815579      0.0097342979  -0.061813309    0.085529506  
     23300   23.815185      0.99019357     6.4297809      233            60.635091      7.9146415           1552           0   227.49981      3434.7777      23.801526      13.825496      0.17534904    -7.5710644     -0.015320831   -0.035907374   -0.13793029   
     23400   23.818446      1.0136502      6.4051261      234            60.903945      7.9251614           1559           0   183.41068      3379.7857      23.821978      13.814569      0.1638901     -7.5733334      0.010014416   -0.045599987    0.10432929   
     23500   23.782051      1.0092214      6.3961725      235            61.168819      7.9095666           1565           0   174.55594      3416.4228      23.801895      13.818787      0.16577493    -7.5883897      0.020166816   -0.053381181   -0.13803398   
     23600   23.738887      1.0193465      6.3779307      236            61.432062      7.906508            1571           0   215.4903       3464.8359      23.757883      13.842409      0.1617428     -7.6262215      0.065175155    0.051369708    0.14797967   
     23700   23.719622      1.0153016      6.3725429      237            61.695278      7.8950546           1578           0   195.61493      3424.2389      23.729303      13.822384      0.16130867    -7.6111494     -0.0088327691   0.033730643   -0.089239092  
     23800   23.711906      0.99856974     6.3592412      238            61.957882      7.8566624           1585           0   228.78365      3469.13        23.71476       13.816827      0.16064239    -7.6182286     -0.094474711    0.036511727    0.13324449   
     23900   23.703784      1.0038068      6.3182703      239            62.219768      7.8235448           1592           0   198.73512      3348.3198      23.708799      13.809931      0.16535406    -7.6570143      0.021415334    0.0024359774   0.017319181  
     24000   23.691081      1.0070167      6.3063024      240            62.477807      7.8163903           1598           0   220.90885      3369.6281      23.697496      13.813974      0.17142542    -7.6790968     -0.001053964   -0.030436919    0.012529156  
     24100   23.672054      1.0109428      6.3278167      241            62.740666      7.8437922           1605           0   200.54283      3407.9088      23.681792      13.830118      0.16602492    -7.6683267     -0.048473236    0.017835411   -0.04471473   
     24200   23.642498      1.0120478      6.3287221      242            63.002571      7.8463544           1612           0   184.12949      3354.9097      23.657914      13.812341      0.16112029    -7.6447394      0.056302501    0.017658446    0.13647998   
     24300   23.614867      0.99404841     6.3319429      243            63.25875       7.822584            1618           0   220.20227      3385.995       23.628501      13.823425      0.16631058    -7.6577928     -0.065189941    0.012277036   -0.22097145   
     24400   23.574833      1.0024568      6.2748483      244            63.519409      7.7780984           1625           0   209.24289      3401.7074      23.595101      13.793688      0.15212306    -7.6709626      0.16805669     0.08685548     0.098019568  
     24500   23.586296      1.0022557      6.3013819      245            63.779049      7.8043304           1631           0   202.55176      3410.4518      23.574357      13.813572      0.15786491    -7.6700547      0.034002077   -0.0071039591   0.085148012  
     24600   23.650264      0.98946335     6.374298       246            64.044235      7.8580635           1638           0   211.66943      3445.5886      23.616917      13.819854      0.16844221    -7.6139982      0.042938792    0.048241345    0.064341606  
     24700   23.718026      1.0170009      6.3487042      247            64.309134      7.8737641           1645           0   195.47805      3334.4846      23.685126      13.798007      0.17193597    -7.6212392     -1.6881075e-05 -0.010302081   -0.044166922  
     24800   23.762948      0.99989751     6.4069309      248            64.567973      7.9063432           1651           0   224.68447      3317.9441      23.744245      13.800773      0.17646583    -7.5703074     -0.021122275   -0.056065292   -0.053370138  
     24900   23.783123      1.0128273      6.4492522      249            64.836768      7.9680536           1658           0   212.16979      3413.5478      23.774463      13.826642      0.17097457    -7.5483643      0.066337206    0.03821644     0.086840456  
     25000   23.791354      0.99139127     6.4554216      250            65.091267      7.9420782           1664           0   184.52439      3424.487       23.789346      13.82331       0.17434682    -7.5422352     -0.050868299   -0.031245533   -0.068106436  
     25100   23.770722      0.98137618     6.4330692      251            65.351987      7.9047075           1671           0   246.60084      3444.106       23.782493      13.827411      0.15921059    -7.5535521     -0.032557825   -0.0036499633  -0.10932851   
     25200   23.719257      1.0012596      6.3976137      252            65.613213      7.8990685           1678           0   172.9609       3407.4688      23.74602       13.820094      0.1742257     -7.5967061      0.054232331    0.03819        0.070685851  
     25300   23.682669      1.0215717      6.3755384      253            65.878904      7.9074527           1685           0   245.52972      3394.9125      23.698725      13.81562       0.17120066    -7.6112824     -0.092207412   -0.011899846   -0.16885058   
     25400   23.648868      1.0010249      6.350459       254            66.145306      7.8515618           1692           0   201.35946      3320.1414      23.667114      13.807501      0.16102083    -7.618063       0.015797036   -0.015479598   -0.10877477   
     25500   23.621779      1.0132772      6.3548832      255            66.424819      7.8743591           1698           0   227.44378      3489.796       23.632082      13.829366      0.16323419    -7.6377171      0.14687168     0.069985845    0.035830481  
     25600   23.626971      1.0206104      6.3374386      256            66.689242      7.8679112           1705           0   259.41295      3409.9098      23.623208      13.819209      0.1638027     -7.6455732     -0.04867161    -0.037939602    0.081018376  
     25700   23.650539      1.0134363      6.3710548      257            66.945905      7.8907695           1711           0   166.27672      3398.0829      23.63624       13.805159      0.16488133    -7.5989859     -0.022041039    0.092106917    0.065307849  
     25800   23.698103      1.0227827      6.375631       258            67.209242      7.9093611           1718           0   219.85242      3412.531       23.675015      13.8134        0.17824878    -7.6160174     -0.079940235   -0.013828649   -0.12096107   
     25900   23.722983      0.99558836     6.3746611      259            67.462948      7.8676115           1724           0   184.24503      3356.9751      23.713546      13.828801      0.16596265    -7.6201021      0.015298712   -0.0095443564   0.063789936  
     26000   23.721905      1.0134629      6.4120437      260            67.724037      7.9317983           1731           0   214.36044      3414.5609      23.723341      13.819075      0.16774303    -7.5747746     -0.012725977    0.043831839   -0.079803477  
     26100   23.723353      1.0258266      6.3996078      261            67.978663      7.9379024           1737           0   179.43636      3405.5671      23.722823      13.80874       0.15657924    -7.5657112      0.062295763    0.032493908   -0.016696254  
     26200   23.713718      1.013213       6.4042878      262            68.236838      7.9236675           1744           0   197.77722      3465.3021      23.72142       13.82678       0.16291823    -7.5854104      0.080274193    0.0076536351   0.24136087   
     26300   23.691428      0.99542462     6.3739888      263            68.496032      7.8666936           1751           0   182.16881      3389.091       23.7022        13.804469      0.16543228    -7.5959128     -0.045625518    0.020513782   -0.081323954  
     26400   23.67426       0.98724617     6.3651588      264            68.751649      7.8455996           1757           0   217.31746      3424.7626      23.682941      13.821727      0.16592214    -7.62249       -0.0041360413   0.044576426    0.0068061975 
     26500   23.643754      1.0133199      6.309657       265            69.011929      7.8291971           1764           0   202.28469      3432.9005      23.658383      13.80457       0.15814222    -7.6530548     -0.032033444    0.14517777    -0.042203994  
     26600   23.631052      1.0111139      6.317278       266            69.265986      7.83351             1770           0   207.56181      3431.0945      23.635856      13.822065      0.15886822    -7.6636556      0.090083382    0.039786555   -0.012891152  
     26700   23.631079      0.99850991     6.336917       267            69.528057      7.8342485           1777           0   166.54778      3438.8647      23.632542      13.831093      0.16267954    -7.656855      -0.010764181   -0.005650221    0.059474779  
     26800   23.623315      1.0114646      6.3237816      268            69.79225       7.8405396           1784           0   181.02414      3372.0985      23.626645      13.811307      0.15731516    -7.6448407     -0.0011495094  -0.088562422   -0.021941688  
     26900   23.610387      1.0208291      6.3473743      269            70.05007       7.8781748           1790           0   196.21787      3414.6018      23.616354      13.809741      0.15189799    -7.614265       0.043004069    0.075074003    0.10448726   
     27000   23.607248      0.98665791     6.3381393      270            70.312858      7.8176979           1797           0   192.93706      3496.0649      23.607344      13.840452      0.16215074    -7.6644633      0.021707043    0.043123305    0.16988912   
     27100   23.605114      0.98789502     6.2951997      271            70.574074      7.7766135           1803           0   229.35804      3417.6387      23.609388      13.819401      0.15780576    -7.6820067     -0.012032821   -0.019580564    0.06666773   
     27200   23.585651      1.0235417      6.2492707      272            70.834757      7.784139            1810           0   180.36274      3339.1567      23.59385       13.791553      0.14817618    -7.690459       0.01269576     0.033370729   -0.047646799  
     27300   23.603486      0.99973888     6.312151       273            71.090934      7.8113255           1816           0   185.85593      3389.2315      23.589998      13.811706      0.15300893    -7.6525636      0.043932014    0.085886948   -0.13299948   
     27400   23.622744      0.9833247      6.2906333      274            71.347868      7.7651935           1822           0   180.03047      3367.4962      23.61795       13.819535      0.15915489    -7.6880566     -0.071883391   -0.096079213   -0.17649608   
     27500   23.60355       0.9936287      6.2680702      275            71.613406      7.758082            1829           0   251.88806      3389.2853      23.613322      13.810216      0.15719371    -7.6993397     -0.053426684   -0.057233315   -0.033730089  
     27600   23.587918      1.0022654      6.301585       276            71.877048      7.8045481           1836           0   182.13135      3426.0849      23.593394      13.818325      0.1619149     -7.6786544     -0.074753485    0.07483711    -0.049821925  
     27700   23.592823      0.9966568      6.2836433      277            72.140942      7.7781959           1843           0   194.95076      3404.387       23.589783      13.80642       0.15681816    -7.6795952      0.017420302   -0.028770682    0.05096365   
     27800   23.597576      0.99443213     6.3439813      278            72.398425      7.8351979           1849           0   225.00651      3424.1652      23.594472      13.803208      0.1617582     -7.6209851      0.15209908     0.040367067   -0.018024128  
     27900   23.604037      0.97832859     6.3206313      279            72.661437      7.7876996           1856           0   215.68001      3455.9399      23.601474      13.820102      0.16164349    -7.6611147      0.035016701    0.036699374    0.21122279   
     28000   23.611751      1.0032385      6.2835267      280            72.924182      7.7879489           1863           0   230.93959      3373.3119      23.60813       13.809792      0.14716039    -7.6734253      0.017696442   -0.034628739    0.044507858  
     28100   23.602864      0.98919055     6.3416821      281            73.182196      7.8250385           1869           0   190.81672      3475.7476      23.607253      13.814125      0.16134773    -7.6337911      0.021885645    0.12813497     0.047252945  
     28200   23.597961      0.99859245     6.2937688      282            73.443895      7.7912241           1876           0   197.99476      3407.017       23.601127      13.816786      0.14974311    -7.6727605     -0.031071      -0.065867425    0.091230011  
     28300   23.565162      0.99760832     6.2656446      283            73.701042      7.7616241           1882           0   194.16064      3417.0038      23.582765      13.833415      0.15693674    -7.7247068      0.058084656   -0.023097296   -0.13299901   
     28400   23.528779      1.0037888      6.2525117      284            73.964825      7.7577591           1889           0   224.69929      3384.2557      23.54742       13.808386      0.15617103    -7.7120456     -0.0040279615  -0.027364865    0.091634783  
[...]
     93000   23.4331        0.99554104     6.0922016      930            244.13334      7.585081            6089           0   183.35993      3398.1925      23.411775      13.803619      0.13103832    -7.8424557      0.022980845    0.025362155   -0.1753415    
     93100   23.492639      0.99123864     6.113488       931            244.39331      7.5999157           6095           0   194.52861      3372.7035      23.463306      13.808053      0.14191621    -7.8364817     -0.087889905    0.062500769   -0.082038145  
     93200   23.536441      1.000831       6.1671196      932            244.65834      7.6679317           6102           0   167.11775      3381.9514      23.517005      13.812188      0.14092404    -7.7859928      0.0016823523  -0.030382307   -0.09169801   
     93300   23.551872      0.98611192     6.1839802      933            244.91598      7.6627201           6108           0   208.48394      3476.4204      23.547251      13.820706      0.14007511    -7.7768013      0.041014738    0.026502575    0.092840737  
     93400   23.543894      1.0066838      6.1645944      934            245.16824      7.6741832           6114           0   199.04801      3430.223       23.549897      13.828671      0.14424083    -7.808317      -0.065537336   -0.10415212    -0.11658598   
     93500   23.495043      1.020471       6.1368831      935            245.43077      7.6671467           6121           0   208.23814      3442.0108      23.52228       13.807233      0.13973787    -7.810088       0.033952509   -0.053223056    0.096470604  
     93600   23.431595      1.0091329      6.1106485      936            245.69228      7.6239099           6128           0   220.4983       3446.885       23.46333       13.815059      0.13475619    -7.8391667     -0.0087185096   0.025166376   -0.073653829  
     93700   23.395014      0.9973528      6.1222231      937            245.95693      7.6178195           6135           0   160.3093       3420.862       23.409501      13.80251       0.13234188    -7.8126286      0.1170717      0.053678062   -0.0071989468 
     93800   23.429489      1.009424       6.0938723      938            246.21516      7.6075701           6141           0   218.66193      3458.8711      23.405598      13.811498      0.1325635     -7.8501888      0.049551723   -0.0069972708   0.00039213091
     93900   23.504561      1.0020676      6.160716       939            246.47781      7.6633825           6148           0   234.83321      3443.0129      23.466902      13.824367      0.13866417    -7.8023153     -0.034846054   -0.01220419    -0.075313182  
     94000   23.558382      0.99458773     6.1732586      940            246.73898      7.6647085           6155           0   296.80264      3399.234       23.53733       13.832697      0.137439      -7.7968774     -0.085732778   -0.16541903    -0.095108914  
     94100   23.533028      1.0023075      6.1157188      941            246.99408      7.618745            6161           0   298.10302      3366.5104      23.551464      13.808531      0.13686358    -7.8296755     -0.06277157    -0.097508452    0.085807856  
     94200   23.468946      1.0038473      6.1221001      942            247.25639      7.6274353           6168           0   192.48734      3395.7311      23.500958      13.810046      0.13835631    -7.8263018      0.079812589    0.0095412633  -0.039242066  
     94300   23.425134      1.0223701      6.0843692      943            247.51797      7.6174807           6174           0   168.73267      3421.454       23.441816      13.807096      0.1325228     -7.8552491      0.055544933    0.096508054   -0.12918022   
     94400   23.441713      0.99656264     6.1195846      944            247.78105      7.613996            6181           0   206.84259      3457.2378      23.431188      13.825506      0.13630135    -7.842223      -0.0041836377  -0.0095485037   0.16422294   
     94500   23.467007      1.0012325      6.1235332      945            248.03834      7.6249473           6187           0   206.44889      3431.6957      23.453955      13.8153        0.14170539    -7.833472       0.063849069    0.037556131   -0.067582848  
     94600   23.497677      0.98551458     6.1321348      946            248.30045      7.6099789           6194           0   204.72446      3457.7075      23.482334      13.828666      0.13188127    -7.8284123      0.045136887    0.0024005499   0.023559924  
     94700   23.5174        0.9770134      6.1658461      947            248.55681      7.6309421           6200           0   204.57677      3409.8175      23.509865      13.815589      0.14487249    -7.7946149     -0.01605464    -0.017820906    0.16859873   
     94800   23.505631      0.9897448      6.167477       948            248.81922      7.6516646           6207           0   173.75465      3409.1329      23.513792      13.816147      0.15168196    -7.8003518      0.021382647    0.10753148     0.17209814   
     94900   23.495851      0.98449908     6.1796138      949            249.07584      7.6559352           6213           0   208.8165       3446.574       23.49955       13.816795      0.1449742     -7.7821558      0.042079414    0.085176544   -0.17421384   
     95000   23.509061      0.99345276     6.1638492      950            249.33812      7.6535971           6220           0   187.95151      3396.1002      23.500159      13.800968      0.1470479     -7.7841671      0.074461998    0.036182436   -0.0063288469 
     95100   23.528917      1.0024033      6.1744051      951            249.59615      7.677575            6226           0   233.38112      3473.8482      23.520853      13.814941      0.14011776    -7.7806534     -0.023736601   -0.058322254    0.17192262   
     95200   23.529472      0.99482525     6.1858183      952            249.85962      7.6776244           6233           0   172.9821       3394.2942      23.530176      13.818963      0.1422193     -7.7753639      0.15791267     0.042639694   -0.018424438  
     95300   23.533939      1.012945       6.1646682      953            250.11597      7.6836461           6239           0   193.85055      3442.7508      23.530689      13.818379      0.13924956    -7.7929602      0.077812374   -0.062767621    0.19726168   
     95400   23.543298      0.98486581     6.211878       954            250.37125      7.6887492           6245           0   193.6442       3425.2951      23.539547      13.825452      0.13954197    -7.7531156     -0.018687188    0.022159942   -0.10703009   
     95500   23.545431      1.0132154      6.2045699      955            250.6324       7.7239533           6252           0   223.29556      3395.6372      23.544699      13.833199      0.14715632    -7.7757859     -0.0091935286   0.024343978    0.072691676  
     95600   23.558525      1.0498504      6.2376144      956            250.88706      7.8119344           6258           0   189.67391      3447.9312      23.549292      13.817281      0.14850914    -7.7281758     -0.015465064    0.051863777   -0.2339061    
     95700   23.601993      1.0008214      6.2408986      957            251.14392      7.7416963           6265           0   175.68038      3449.9852      23.57996       13.826436      0.14448398    -7.7300217     -0.078602991   -0.029686654   -0.22828327   
     95800   23.611677      0.98999449     6.2165191      958            251.40104      7.7010811           6272           0   202.14084      3414.3898      23.612379      13.811671      0.14585396    -7.7410058     -0.095651574   -0.083336553   -0.071398664  
     95900   23.576867      1.0245376      6.1867349      959            251.65928      7.7230966           6279           0   184.24746      3346.0766      23.594431      13.801092      0.15109117    -7.7654484     -0.12776613     0.045338897   -0.068342359  
     96000   23.522981      1.0131386      6.1477757      960            251.92047      7.6670438           6286           0   255.79727      3380.5533      23.551711      13.800783      0.13637299    -7.7893804     -0.012526193    0.052259381    0.033170039  
     96100   23.462348      1.021911       6.1514455      961            252.18519      7.6838684           6293           0   191.80186      3500.0403      23.488832      13.830981      0.13426673    -7.8138026      0.044818268    0.17564361    -0.030907163  
     96200   23.462766      0.99957544     6.1409366      962            252.4422       7.6398659           6299           0   202.94896      3460.0997      23.459367      13.822094      0.13888826    -7.8200461     -0.0068857545   0.010905619   -0.034916655  
     96300   23.477811      1.0004604      6.1451746      963            252.70149      7.645431            6305           0   191.97642      3391.5963      23.470168      13.816602      0.13518447    -7.806612      -0.045639814   -0.019047045   -0.053966993  
     96400   23.495179      0.98637032     6.1351848      964            252.9643       7.6143122           6312           0   193.44311      3439.5726      23.485911      13.817279      0.14021902    -7.8223129     -0.047449158    0.040146241   -0.02350973   
     96500   23.514402      0.99432505     6.1528257      965            253.22157      7.6438817           6318           0   189.01117      3385.9357      23.505027      13.817747      0.14231726    -7.807239      -0.06781066     0.040595198    0.18753768   
     96600   23.528464      1.0046053      6.1972585      966            253.48141      7.7037303           6324           0   210.03409      3474.7465      23.52072       13.832441      0.13830324    -7.7734856     -0.011385494   -0.015743068   -0.064842833  
     96700   23.556282      1.0090088      6.1632612      967            253.74292      7.6763365           6331           0   177.12128      3414.3749      23.54091       13.818577      0.13603762    -7.7913532     -0.02930742    -0.04127995    -0.037323455  
     96800   23.57175       1.0024387      6.16564        968            253.99648      7.668863            6337           0   198.5246       3465.4413      23.567721      13.823394      0.14352598    -7.8012802     -0.04774579    -0.10342954     0.13002773   
     96900   23.550083      0.99269305     6.1724799      969            254.25491      7.6610887           6344           0   208.05643      3420.6535      23.561745      13.806654      0.14034363    -7.7745181     -0.057348741   -0.053728672   -0.068599524  
     97000   23.508482      0.97274238     6.1431229      970            254.51151      7.6018143           6350           0   175.59089      3354.1598      23.531171      13.810437      0.13499037    -7.8023047      0.060796644   -0.00088787948 -0.19299301   
     97100   23.463299      1.0095791      6.1297915      971            254.7718       7.643722            6356           0   243.95091      3420.1793      23.484004      13.809459      0.14169588    -7.821363       0.029504057   -0.010291135   -0.2301426    
     97200   23.45624       0.99613572     6.1480675      972            255.03845      7.6418387           6363           0   255.90561      3369.227       23.455169      13.816427      0.13574772    -7.8041073      0.078388799    0.0065582554  -0.053170527  
     97300   23.478722      0.99481696     6.1562177      973            255.30152      7.6480114           6370           0   209.97197      3421.5968      23.468138      13.805582      0.1385064     -7.7878703      0.0069095979   0.061409285    0.20631186   
     97400   23.49537       1.0007513      6.1401742      974            255.55782      7.6408669           6376           0   213.34082      3463.9295      23.487487      13.81781       0.12605162    -7.8036879     -0.01059185     0.11500535     0.10300794   
     97500   23.515106      1.0030498      6.1298895      975            255.81567      7.6340289           6382           0   248.15292      3394.8279      23.504778      13.818469      0.13952564    -7.8281051     -0.052001199   -0.13608611    -0.01408258   
     97600   23.507665      1.0057664      6.1701608      976            256.07873      7.6783739           6389           0   200.6106       3408.4856      23.514534      13.81408       0.14418806    -7.7881073     -0.12893285     0.01153054    -0.011151274  
     97700   23.492918      0.99497659     6.1583951      977            256.33686      7.6504281           6395           0   183.55621      3398.3305      23.498822      13.814839      0.14275368    -7.799198       0.046763883    0.018480601   -0.0087030304 
     97800   23.482904      1.0059068      6.2103756      978            256.5993       7.7187992           6402           0   207.39277      3484.122       23.488526      13.837768      0.14319911    -7.7705918      0.07369656     0.012102202   -0.079013197  
     97900   23.488805      0.99526669     6.202346       979            256.85744      7.694814            6408           0   257.96961      3515.0066      23.484065      13.861516      0.13696862    -7.7961384      0.014656546    0.0017619829   0.10215536   
     98000   23.50858       0.99786676     6.1786521      980            257.12031      7.6750191           6415           0   187.59287      3462.161       23.498432      13.812193      0.14536345    -7.7789042      0.056647847    0.06306211     0.20397677   
     98100   23.540561      0.98899187     6.1801661      981            257.37967      7.6632246           6421           0   178.08432      3387.3768      23.522646      13.828755      0.13618344    -7.784772      -0.017802591    0.045309412   -0.006087289  
     98200   23.594402      0.98416557     6.2022262      982            257.63481      7.6780474           6427           0   186.60672      3450.7086      23.567092      13.815146      0.1396807     -7.7526003     -0.088096231   -0.091775235    0.062773894  
     98300   23.602102      0.9834682      6.1913832      983            257.89482      7.6661586           6434           0   154.95664      3397.8133      23.605662      13.811395      0.13816876    -7.7581809     -0.18827209    -0.11679717     0.031529931  
     98400   23.517528      1.0016842      6.1696776      984            258.14998      7.6717692           6440           0   226.59009      3379.1289      23.564797      13.817752      0.14407433    -7.7921489     -0.051550661   -0.047123228    0.075891688  
     98500   23.411345      1.0131962      6.1370543      985            258.40809      7.6564089           6446           0   191.01438      3420.2584      23.4618        13.823925      0.14447309    -7.8313437      0.015383366    0.027252757   -0.13715782   
     98600   23.36061       0.99891687     6.0683227      986            258.66748      7.5662644           6452           0   201.29028      3431.2381      23.377824      13.803794      0.12809138    -7.8635629      0.12079598     0.073865029   -0.14513911   
     98700   23.388423      0.98004779     6.0950595      987            258.93124      7.5647058           6459           0   243.84313      3559.3871      23.370405      13.83436       0.1316905     -7.8709914      0.020628569    0.091687319    0.14650494   
     98800   23.447072      1.0054062      6.117456       988            259.19078      7.625129            6465           0   204.67178      3438.0941      23.417283      13.815801      0.13739126    -7.8357365     -0.011075764    0.060753879    0.11190533   
     98900   23.488693      1.0040642      6.1455621      989            259.44767      7.6512226           6471           0   187.33938      3351.9872      23.472063      13.812556      0.13531173    -7.8023059     -0.096075045   -0.037165351    0.060649072  
     99000   23.513634      0.99585439     6.1613223      990            259.71091      7.6546717           6478           0   183.25514      3430.3889      23.499702      13.813449      0.13617736    -7.7883038     -0.0092566731  -0.025666873   -0.077884206  
     99100   23.528786      1.0190867      6.1648913      991            259.97166      7.693079            6484           0   300.16995      3404.0932      23.523681      13.82245       0.14543586    -7.8029942     -0.056580285   -0.010231829   -0.19345668   
     99200   23.528548      1.013434       6.1930558      992            260.23292      7.712767            6491           0   188.67634      3457.0008      23.528996      13.817623      0.14695806    -7.771525       0.074145919    0.031683838    0.022653819  
     99300   23.527262      1.015539       6.1874117      993            260.48985      7.7102793           6497           0   192.58697      3429.4943      23.528369      13.803785      0.14755382    -7.7639267     -0.053319473   -0.077083322   -0.10663618   
     99400   23.50889       0.99517829     6.1647223      994            260.75004      7.6570578           6503           0   218.72045      3405.2508      23.520144      13.819931      0.13931456    -7.7945235     -0.02736393    -0.1254482      0.049128789  
     99500   23.469344      1.0064844      6.158372       995            261.01196      7.6676618           6510           0   211.54524      3412.5217      23.48889       13.824166      0.14314065    -7.8089344      0.0086869507   0.043913887   -0.012811116  
     99600   23.449361      1.0102917      6.147054       996            261.26964      7.6620531           6516           0   237.56738      3411.0506      23.45617       13.809329      0.14328609    -7.805561       0.032829629   -0.044195904   -0.039951554  
     99700   23.464501      1.0102879      6.1429105      997            261.52689      7.6579038           6522           0   207.08154      3417.8266      23.454199      13.807598      0.15177722    -7.8164647     -0.0061485855  -0.051165583   -0.066305753  
     99800   23.501165      1.0071416      6.1319072      998            261.79024      7.6421825           6529           0   191.90252      3431.5258      23.481552      13.807658      0.14348328    -7.8192339      0.042196581    0.01857732     0.24095215   
     99900   23.53864       1.0123097      6.1541822      999            262.05184      7.6722075           6536           0   205.3148       3362.5469      23.521672      13.801088      0.13966297    -7.7865692     -0.043069656   -0.023658119   -0.034946215  
    100000   23.559139      0.98972778     6.1733592      1000           262.30785      7.6575213           6542           0   215.65503      3481.2811      23.550396      13.819414      0.1301483     -7.7762033     -0.0045793734  -0.016510716    0.027107676  
Loop time of 262.31 on 1 procs for 100000 steps with 3456 atoms

Performance: 329381.430 tau/day, 381.229 timesteps/s, 1.318 Matom-step/s
99.2% CPU use with 1 MPI tasks x 1 OpenMP threads

MPI task timing breakdown:
Section |  min time  |  avg time  |  max time  |%varavg| %total
---------------------------------------------------------------
Pair    | 207.73     | 207.73     | 207.73     |   0.0 | 79.19
Bond    | 5.6168     | 5.6168     | 5.6168     |   0.0 |  2.14
Neigh   | 34.349     | 34.349     | 34.349     |   0.0 | 13.10
Comm    | 1.0274     | 1.0274     | 1.0274     |   0.0 |  0.39
Output  | 0.19748    | 0.19748    | 0.19748    |   0.0 |  0.08
Modify  | 12.821     | 12.821     | 12.821     |   0.0 |  4.89
Other   |            | 0.5663     |            |       |  0.22

Nlocal:           3456 ave        3456 max        3456 min
Histogram: 1 0 0 0 0 0 0 0 0 0
Nghost:           2427 ave        2427 max        2427 min
Histogram: 1 0 0 0 0 0 0 0 0 0
Neighs:         175838 ave      175838 max      175838 min
Histogram: 1 0 0 0 0 0 0 0 0 0

Total # of neighbors = 175838
Ave neighs/atom = 50.879051
Ave special neighs/atom = 2
Neighbor list builds = 6542
Dangerous builds = 0
Total wall time: 0:04:22
