LAMMPS (29 Aug 2024 - Update 1)
# Generated by python script of Adam Prada
units      lj
atom_style hybrid ellipsoid bond molecular
WARNING: Atom style hybrid defines both, per-type and per-atom masses; both must be set, but only per-atom masses will be used (src/lammps-29Aug2024_with_additions/src/atom_vec_hybrid.cpp:132)
dimension   3
boundary   p p p
processors   * 1 1               # set the number of MPI processors in Ly and Lz directions to 1
read_data   lmpdat_cyl_mu3.0_P-1.0e-01_N005000_R04_Pdamp500.0_seed123.in
Reading data file ...
  orthogonal box = (-86.6025 -100 -100) to (86.6025 100 100)
  1 by 1 by 1 MPI processor grid
  reading atoms ...
  5000 atoms
  5000 ellipsoids
Finding 1-2 1-3 1-4 neighbors ...
  special bond factors lj:    0        0        0       
  special bond factors coul:  0        0        0       
     0 = max # of 1-2 neighbors
     0 = max # of 1-3 neighbors
     0 = max # of 1-4 neighbors
     1 = max # of special neighbors
  special bonds CPU = 0.000 seconds
  read_data CPU = 0.032 seconds
# This is so that transparency is in the XYZ files
fix fTransparency all property/atom d_transparency
set type * d_transparency 0.0
Setting atom values ...
  5000 settings made for d_transparency
set type 1 d_transparency 0.8
Setting atom values ...
  5000 settings made for d_transparency
group      mem      type 1:1        # membrane
5000 atoms in group mem
group      standard_beads union mem
5000 atoms in group standard_beads
# This overrides stuff in the data file (where density is used)
set group standard_beads mass 1.0
Setting atom values ...
  5000 settings made for mass
#********************************************************************************
# If quaternion parameters were set here
#********************************************************************************
#set type 1 shape  1 0.99 0.99

# Setting the quaternion parameters like this is:
# a,b,c = unit vector to rotate particle around via right-hand rule
# theta = rotation angle (degrees)
#set          group all quat 0 -1 0  90
#********************************************************************************
# Defining quaternion computes for output of orientation
#********************************************************************************
compute      quat all property/atom quatw quati quatj quatk
compute      diameter all property/atom shapex shapey shapez
#********************************************************************************
# Other variables
#********************************************************************************
# Each membrane sphere/ellipsoid has 1 hidden degree of freedom
# Each ESCRT sphere/ellipsoid has 3 hidden degrees of freedom
variable    dofsub             equal    "count(mem)+3*count(escrt)"
variable    Nmem               equal    "count(mem)"
variable    kinetic_energy     equal    ke
variable    potential_energy   equal    pe
variable    total_energy       equal    etotal
#************************************
# Box size calculation
#************************************
variable xwidth equal xhi-xlo
variable ywidth equal yhi-ylo
variable zwidth equal zhi-zlo
#********************************************************************************
# thermodynamic parameters
#********************************************************************************
# Target temperature
variable my_temp equal 1.0
# Damping parameter of thermostat
variable my_Tdamp0 equal 1.000000
variable my_Tdamp equal 1.000000
# Target pressure
variable my_press equal -0.100000*${Nmem}
variable my_press equal -0.100000*5000
# Damping parameter for barostat
variable my_Pdamp equal 500.000000
# Drag parameter for barostat
variable my_drag equal 0.000000
variable my_nreset equal 100
variable    myroot        equal    1.122462
#********************************************************************************
# membrane parameters
#********************************************************************************
variable    rc           equal    2.6
variable    mu           equal    3.000000
variable    zeta         equal    4
variable    eps          equal    4.34
variable    sigma        equal    1.00
variable    theta0_11    equal    0
# r_min = sigma * 2^(1/6)
variable    rmin        equal    ${myroot}
variable    rmin        equal    1.122462
variable    beta    equal    0
# Note that beta = sin(theta_0)
variable    fake_ellipse    atom    2
#********************************************************************************
# ESCRT parameters
#********************************************************************************
#**************************
# Membrane-ESCRT attraction
#**************************
# NB: This sigma is the LJ parameter, not simulation unit
variable    sigma_atr   equal   1
variable    eps_atr     equal   4
variable    rc_atr      equal   1.3*${myroot}*${sigma_atr}
variable    rc_atr      equal   1.3*1.122462*${sigma_atr}
variable    rc_atr      equal   1.3*1.122462*1
#**************************
# Membrane-ESCRT repulsion
#**************************
variable    sigma_rep   equal   1
variable    eps_rep     equal   2
variable    rc_rep      equal   ${myroot}*${sigma_rep}
variable    rc_rep      equal   1.122462*${sigma_rep}
variable    rc_rep      equal   1.122462*1
#********************************************************************************
# pair style
#********************************************************************************
#******************
# Without LJ overlay
#******************
pair_style ylz ${rc}
pair_style ylz 2.6
pair_coeff * * 0 0 0 0 0 0
pair_coeff    1*1  1*1   ${eps} ${sigma} ${zeta} ${mu} 0 ${rc}
pair_coeff    1*1  1*1   4.34 ${sigma} ${zeta} ${mu} 0 ${rc}
pair_coeff    1*1  1*1   4.34 1 ${zeta} ${mu} 0 ${rc}
pair_coeff    1*1  1*1   4.34 1 4 ${mu} 0 ${rc}
pair_coeff    1*1  1*1   4.34 1 4 3 0 ${rc}
pair_coeff    1*1  1*1   4.34 1 4 3 0 2.6
#********************************************************************************
# neigh modify
#********************************************************************************
# These should be optimised for the particular simulation

# Reduce the delay from default 10 to 2 to get rid of dangeours builds
#neigh_modify   delay 2
# Max number stored in a single neighbor page
# Communicate atoms between processors from this far away
#comm_modify   cutoff 50
#********************************************************************************
# Various computes
#********************************************************************************
compute C_E_kin_trans all ke
compute C_E_kin_rot all erotate/asphere
compute C_E_pot all pe
variable V_E_tot equal c_C_E_pot+c_C_E_kin_trans+c_C_E_kin_rot

# for fix commands, the 1st and 2nd arguments are ID and group-ID, then the style (subcommand)
# ID = user assigned name for the fix
# group-ID = ID of the group of atoms to apply the fix to
# ave/time = output global variables, possibly with averaging over time
# Nevery = input values this every timesteps
# Nrepeat = # of times input values should be read before averaging
# Nfreq = calculate averages every this time step
# list of values with v_ prepended = value calculated by an equal style or vector-style variable with name
# file lmpout_energy.dat = the keyword + argument
fix fix_energies all ave/time 100 1 100  v_V_E_tot c_C_E_pot c_C_E_kin_trans c_C_E_kin_rot file lmpout_eqn_eng_cyl_mu3.0_P-1.0e-01_N005000_R04_Pdamp500.0_seed123.dat

#************************************
# Temperature computes
#************************************
compute C_temp_def mem temp/asphere
#************************************
# Default pressure compute
#************************************
compute C_press_def all pressure C_temp_def

# If correcting the number of degrees of freedom
#compute_modify C_temp_def dynamic/dof no extra/dof ${dofsub}

# ^ This compute gives a scalar, which is the total pressure (P_xx+P_yy+P_zz)/3
# but it also gives a vector with components P_xx, P_yy, P_zz, P_xy, P_xz, P_yz
fix fix_eqn_deft mem ave/time 100 1 100 c_C_press_def c_C_press_def[1] c_C_press_def[2] c_C_press_def[3] c_C_press_def[4] c_C_press_def[5] c_C_press_def[6] c_C_temp_def file lmpout_eqn_press_deft_cyl_mu3.0_P-1.0e-01_N005000_R04_Pdamp500.0_seed123.dat

#************************************
# Translation pressure compute
#************************************
compute        C_temp_tran all temp
compute        C_press_tran all pressure C_temp_tran
fix fix_eqn_tran mem ave/time 100 1 100 c_C_press_tran c_C_press_tran[1] c_C_press_tran[2] c_C_press_tran[3] c_C_press_tran[4] c_C_press_tran[5] c_C_press_tran[6] c_C_temp_tran file lmpout_eqn_press_tran_cyl_mu3.0_P-1.0e-01_N005000_R04_Pdamp500.0_seed123.dat

#**************************************************
# Computes used for barostatting and thermostatting
#**************************************************
compute        C_temp_baro all temp
compute        C_press_baro all pressure C_temp_baro novolume
fix fix_eqn_baro mem ave/time 100 1 100 c_C_press_baro c_C_press_baro[1] c_C_press_baro[2] c_C_press_baro[3] c_C_press_baro[4] c_C_press_baro[5] c_C_press_baro[6] c_C_temp_tran file lmpout_eqn_press_baro_cyl_mu3.0_P-1.0e-01_N005000_R04_Pdamp500.0_seed123.dat

#************************************
# Custom translation pressure calculation
#************************************
compute        peratom_null all stress/atom NULL
compute        p_null all reduce sum c_peratom_null[1] c_peratom_null[2] c_peratom_null[3] c_peratom_null[4] c_peratom_null[5] c_peratom_null[6]
variable       V_press_scal_null equal -(c_p_null[1]+c_p_null[2]+c_p_null[3])/(3*vol)
variable       V_press_vec_null vector -c_p_null/vol
fix fix_eqn_null all ave/time 100 1 100 v_V_press_scal_null v_V_press_vec_null[1] v_V_press_vec_null[2] v_V_press_vec_null[3] v_V_press_vec_null[4] v_V_press_vec_null[5] v_V_press_vec_null[6] c_C_temp_tran file lmpout_eqn_press_tran2_cyl_mu3.0_P-1.0e-01_N005000_R04_Pdamp500.0_seed123.dat

#************************************
# Custom translation pressure calculation without volume
#************************************
compute        peratom_null2 all stress/atom NULL
compute        p_null2 all reduce sum c_peratom_null2[1] c_peratom_null2[2] c_peratom_null2[3] c_peratom_null2[4] c_peratom_null2[5] c_peratom_null2[6]
variable       V_press_scal_null2 equal -(c_p_null2[1]+c_p_null2[2]+c_p_null2[3])/(3)
variable       V_press_vec_null2 vector -c_p_null2
fix fix_eqn_null2 all ave/time 100 1 100 v_V_press_scal_null2 v_V_press_vec_null2[1] v_V_press_vec_null2[2] v_V_press_vec_null2[3] v_V_press_vec_null2[4] v_V_press_vec_null2[5] v_V_press_vec_null2[6] c_C_temp_tran file lmpout_eqn_press_tran_novol2_cyl_mu3.0_P-1.0e-01_N005000_R04_Pdamp500.0_seed123.dat
#********************************************************************************
# NVT equilibration
#********************************************************************************
# Heating up the membrane, before turning on the barostat
# (The barostat dislikes zero temperature)
# for the choice of angmom, see https://docs.lammps.org/fix_langevin.html
fix fLANG_standard         standard_beads   langevin ${my_temp} ${my_temp} ${my_Tdamp} 123 zero yes
fix fLANG_standard         standard_beads   langevin 1 ${my_temp} ${my_Tdamp} 123 zero yes
fix fLANG_standard         standard_beads   langevin 1 1 ${my_Tdamp} 123 zero yes
fix fLANG_standard         standard_beads   langevin 1 1 1 123 zero yes
dump         coords_init   all   custom 1 lmpout_init_xyz_cyl_mu3.0_P-1.0e-01_N005000_R04_Pdamp500.0_seed123.xyz.gz id type x y z v_fake_ellipse c_diameter[2] c_diameter[3] c_quat[1] c_quat[2] c_quat[3] c_quat[4] d_transparency
dump_modify  coords_init colname c_quat[1] quatw colname c_quat[2] quati colname c_quat[3] quatj colname c_quat[4] quatk
dump_modify  coords_init colname v_fake_ellipse shapex colname c_diameter[2] shapey colname c_diameter[3] shapez
dump_modify   coords_init   sort id
dump_modify  coords_init colname d_transparency Transparency
dump_modify coords_init format float "%.5g"
compute      stress all stress/atom NULL
dump         coords   all   custom 100 lmpout_xyz_cyl_mu3.0_P-1.0e-01_N005000_R04_Pdamp500.0_seed123.xyz.gz id type x y z c_diameter[1] c_diameter[2] c_diameter[3] c_quat[1] c_quat[2] c_quat[3] c_quat[4] d_transparency c_stress[1] c_stress[2] c_stress[3]
dump_modify  coords colname c_quat[1] quatw colname c_quat[2] quati colname c_quat[3] quatj colname c_quat[4] quatk
dump_modify  coords colname c_diameter[1] shapex colname c_diameter[2] shapey colname c_diameter[3] shapez
dump_modify   coords   sort id
dump_modify   coords colname d_transparency Transparency
dump_modify coords format float "%.5g"
fix fNVE_membrane mem     nve/asphere
timestep   0.010000
run      0

CITE-CITE-CITE-CITE-CITE-CITE-CITE-CITE-CITE-CITE-CITE-CITE-CITE

Your simulation uses code contributions which should be cited:

- Type Label Framework: https://doi.org/10.1021/acs.jpcb.3c08419

@Article{Gissinger24,
 author = {Jacob R. Gissinger, Ilia Nikiforov, Yaser Afshar, Brendon Waters, Moon-ki Choi, Daniel S. Karls, Alexander Stukowski, Wonpil Im, Hendrik Heinz, Axel Kohlmeyer, and Ellad B. Tadmor},
 title = {Type Label Framework for Bonded Force Fields in LAMMPS},
 journal = {J. Phys. Chem. B},
 year =    2024,
 volume =  128,
 number =  13,
 pages =   {3282–-3297}
}

- pair ylz command:

@Article{Yuan10,
 author =  {H. Yuan, C. Huang, J. Li, G. Lykotrafitis, and S. Zhang},
 title =   {One-particle-thick, solvent-free, coarse-grained model for biological and biomimetic fluid membranes},
 journal = {Phys. Rev. E},
 year =    2010,
 volume =  82,
 pages =   {011905}
}

CITE-CITE-CITE-CITE-CITE-CITE-CITE-CITE-CITE-CITE-CITE-CITE-CITE

Generated 0 of 0 mixed pair_coeff terms from geometric mixing rule
Neighbor list info ...
  update: every = 1 steps, delay = 0 steps, check = yes
  max neighbors/atom: 2000, page size: 100000
  master list distance cutoff = 2.9
  ghost atom cutoff = 2.9
  binsize = 1.45, bins = 120 138 138
  1 neighbor lists, perpetual/occasional/extra = 1 0 0
  (1) pair ylz, perpetual
      attributes: half, newton on
      pair build: half/bin/newton
      stencil: half/bin/3d
      bin: standard
Per MPI rank memory allocation (min/avg/max) = 19.78 | 19.78 | 19.78 Mbytes
   Step          Temp          E_pair         E_mol          TotEng         Press     
         0   0             -13.927109      0             -13.927109     -0.0022136875 
Loop time of 1.417e-06 on 1 procs for 0 steps with 5000 atoms

0.0% CPU use with 1 MPI tasks x no OpenMP threads

MPI task timing breakdown:
Section |  min time  |  avg time  |  max time  |%varavg| %total
---------------------------------------------------------------
Pair    | 0          | 0          | 0          |   0.0 |  0.00
Bond    | 0          | 0          | 0          |   0.0 |  0.00
Neigh   | 0          | 0          | 0          |   0.0 |  0.00
Comm    | 0          | 0          | 0          |   0.0 |  0.00
Output  | 0          | 0          | 0          |   0.0 |  0.00
Modify  | 0          | 0          | 0          |   0.0 |  0.00
Other   |            | 1.417e-06  |            |       |100.00

Nlocal:           5000 ave        5000 max        5000 min
Histogram: 1 0 0 0 0 0 0 0 0 0
Nghost:            175 ave         175 max         175 min
Histogram: 1 0 0 0 0 0 0 0 0 0
Neighs:          75000 ave       75000 max       75000 min
Histogram: 1 0 0 0 0 0 0 0 0 0

Total # of neighbors = 75000
Ave neighs/atom = 15
Ave special neighs/atom = 0
Neighbor list builds = 0
Dangerous builds = 0
undump coords_init
thermo      100
restart 50000 lmpout_restart_cont_1.dat lmpout_restart_cont_2.dat
#*********************************************
# NVT0 equilibration with Tdamp0
#*********************************************
unfix fLANG_standard
fix fLANG_standard         standard_beads   langevin ${my_temp} ${my_temp} ${my_Tdamp0} 123 zero yes
fix fLANG_standard         standard_beads   langevin 1 ${my_temp} ${my_Tdamp0} 123 zero yes
fix fLANG_standard         standard_beads   langevin 1 1 ${my_Tdamp0} 123 zero yes
fix fLANG_standard         standard_beads   langevin 1 1 1 123 zero yes
run   10000
Generated 0 of 0 mixed pair_coeff terms from geometric mixing rule
Per MPI rank memory allocation (min/avg/max) = 23.94 | 23.94 | 23.94 Mbytes
   Step          Temp          E_pair         E_mol          TotEng         Press     
         0   0             -13.927109      0             -13.927109     -0.0022136875 
       100   0.64722235    -13.182783      0             -12.212144     -0.00022495773
       200   0.83543398    -12.780075      0             -11.527175      0.00019935498
       300   0.88954214    -12.549618      0             -11.215572     -0.00012528195
       400   0.92059048    -12.37985       0             -10.99924      -0.00026110315
       500   0.93708907    -12.220919      0             -10.815567     -0.00028472785
       600   0.96445693    -12.146987      0             -10.700591     -0.00032053634
       700   0.9820635     -12.08215       0             -10.609349     -0.00028584279
       800   0.98093081    -12.038817      0             -10.567715     -0.00023745662
       900   0.95767641    -11.970066      0             -10.533838     -0.000264954  
      1000   0.9458768     -11.925979      0             -10.507447     -0.00028359641
      1100   0.96721008    -11.891661      0             -10.441136     -0.00027736517
      1200   0.96192006    -11.799131      0             -10.35654      -0.0002531862 
      1300   0.97850376    -11.810908      0             -10.343446     -0.00020437653
      1400   0.95456759    -11.778206      0             -10.346641     -0.00025258409
      1500   0.97532956    -11.752988      0             -10.290287     -0.00023963465
      1600   0.96211606    -11.690201      0             -10.247315     -0.00027084938
      1700   0.99412385    -11.696919      0             -10.206032     -0.0002618446 
      1800   0.98220561    -11.629897      0             -10.156883     -0.00022621048
      1900   0.9771485     -11.607727      0             -10.142297     -0.00018951162
      2000   0.98619803    -11.579352      0             -10.100351     -0.00016966381
      2100   0.97460862    -11.592095      0             -10.130475     -0.00021069615
      2200   0.97548902    -11.558125      0             -10.095184     -0.00026862116
      2300   0.99900387    -11.519131      0             -10.020925     -0.00026271178
      2400   0.98368341    -11.510593      0             -10.035363     -0.00023987433
      2500   1.0060689     -11.492007      0             -9.9832059     -0.00025235898
      2600   1.0040283     -11.466827      0             -9.9610854     -0.00027336296
      2700   0.99099396    -11.40556       0             -9.9193661     -0.00025815376
      2800   0.98400259    -11.425512      0             -9.9498036     -0.00024673206
      2900   1.0059946     -11.440232      0             -9.9315423     -0.00024358395
      3000   0.99494705    -11.414744      0             -9.9226217     -0.00023336449
      3100   0.96976117    -11.386883      0             -9.932532      -0.00027977084
      3200   1.00218       -11.39545       0             -9.892481      -0.00024664238
      3300   0.99151341    -11.392748      0             -9.9057756     -0.00023333985
      3400   1.0108014     -11.381685      0             -9.8657862     -0.00023303211
      3500   0.98946035    -11.337181      0             -9.8532873     -0.0001921214 
      3600   1.0119242     -11.401239      0             -9.8836564     -0.00024895326
      3700   0.98980358    -11.378903      0             -9.8944947     -0.00022483973
      3800   0.98204834    -11.355179      0             -9.8824015     -0.00027450083
      3900   1.0015854     -11.358734      0             -9.8566563     -0.00026166172
      4000   0.99187995    -11.345841      0             -9.8583188     -0.00023009037
      4100   1.0092915     -11.376617      0             -9.8629826     -0.00022876192
      4200   0.97464791    -11.381833      0             -9.9201533     -0.00022250892
      4300   1.0051706     -11.414705      0             -9.9072509     -0.00022824296
      4400   0.98985364    -11.391687      0             -9.9072035     -0.00026655753
      4500   1.0123519     -11.338249      0             -9.8200248     -0.00027224081
      4600   1.0058812     -11.327923      0             -9.8194028     -0.00025267867
      4700   1.025394      -11.345281      0             -9.8074973     -0.00021865543
      4800   0.97974407    -11.314637      0             -9.8453152     -0.00028604798
      4900   0.99733802    -11.31886       0             -9.8231521     -0.00030212286
      5000   1.0071679     -11.294696      0             -9.7842466     -0.00032874978
      5100   1.0065356     -11.319618      0             -9.8101165     -0.00027864199
      5200   1.0010588     -11.317511      0             -9.8162236     -0.00022686423
      5300   1.001671      -11.35308       0             -9.8508737     -0.00021751527
      5400   0.98703876    -11.361104      0             -9.8808418     -0.00022492942
      5500   0.98990239    -11.341967      0             -9.8574107     -0.00022054761
      5600   0.97587384    -11.368033      0             -9.9045147     -0.00026282366
      5700   1.0063445     -11.356627      0             -9.847412      -0.00021134522
      5800   0.99189656    -11.331205      0             -9.8436582     -0.00022282112
      5900   0.9881272     -11.338121      0             -9.8562263     -0.00022890701
      6000   0.98631221    -11.285595      0             -9.8064224     -0.0002006651 
      6100   1.0071544     -11.315243      0             -9.8048136     -0.00023887305
      6200   0.98973829    -11.333308      0             -9.8489977     -0.00030232245
      6300   1.0011107     -11.328692      0             -9.8273263     -0.00027969556
      6400   1.0054227     -11.315569      0             -9.8077369     -0.000230006  
      6500   1.0012403     -11.304239      0             -9.8026785     -0.00024764124
      6600   0.98876481    -11.306852      0             -9.8240012     -0.00018520431
      6700   1.0063916     -11.384824      0             -9.8755387     -0.0002548378 
      6800   0.99605193    -11.352239      0             -9.8584598     -0.00023477755
      6900   0.99929822    -11.383974      0             -9.8853269     -0.0002336463 
      7000   0.99086714    -11.3569        0             -9.8708969     -0.00019628417
      7100   0.98726985    -11.355828      0             -9.8752198     -0.00023599822
      7200   0.97194792    -11.310802      0             -9.8531718     -0.0002409511 
      7300   1.0067069     -11.335776      0             -9.8260177     -0.00021524071
      7400   0.99324697    -11.293875      0             -9.8043023     -0.00024572902
      7500   1.0006341     -11.315229      0             -9.8145781     -0.00023753426
      7600   0.99453647    -11.311909      0             -9.8204024     -0.00021052486
      7700   0.99723487    -11.325822      0             -9.8302693     -0.00022781008
      7800   0.99271835    -11.321652      0             -9.8328721     -0.00023745831
      7900   1.0141798     -11.28889       0             -9.7679246     -0.00023373067
      8000   1.02363       -11.303175      0             -9.768037      -0.00018589848
      8100   0.98800463    -11.318115      0             -9.8364045     -0.00026153839
      8200   1.0041015     -11.313184      0             -9.8073328     -0.00025537253
      8300   1.0180601     -11.31469       0             -9.7879051     -0.00020718729
      8400   0.99994204    -11.300386      0             -9.8007731     -0.0002321035 
      8500   1.0084566     -11.298425      0             -9.7860423     -0.00023516455
      8600   1.0102489     -11.315995      0             -9.8009249     -0.00024064527
      8700   1.0089307     -11.301356      0             -9.7882627     -0.00019358326
      8800   0.99376476    -11.30356       0             -9.8132108     -0.00014369031
      8900   0.9970575     -11.307345      0             -9.8120583     -0.00022513598
      9000   0.99429433    -11.317482      0             -9.8263389     -0.00024008816
      9100   0.98783091    -11.314023      0             -9.8325731     -0.00025265172
      9200   0.9911475     -11.273523      0             -9.7870987     -0.00024410312
      9300   0.99486088    -11.326084      0             -9.8340914     -0.00025080464
      9400   1.0001006     -11.32162       0             -9.8217692     -0.00014943535
      9500   1.013281      -11.296789      0             -9.7771717     -0.00016262428
      9600   1.0062882     -11.299207      0             -9.7900771     -0.00019975933
      9700   1.0111209     -11.325287      0             -9.8089092     -0.00020278846
      9800   0.98925875    -11.280158      0             -9.7965669     -0.00027227372
      9900   1.003881      -11.310387      0             -9.8048664     -0.00026955607
     10000   0.99412868    -11.303876      0             -9.812981      -0.00022865964
Loop time of 38.4088 on 1 procs for 10000 steps with 5000 atoms

Performance: 224948.428 tau/day, 260.357 timesteps/s, 1.302 Matom-step/s
93.3% CPU use with 1 MPI tasks x no OpenMP threads

MPI task timing breakdown:
Section |  min time  |  avg time  |  max time  |%varavg| %total
---------------------------------------------------------------
Pair    | 24.857     | 24.857     | 24.857     |   0.0 | 64.72
Bond    | 0.00033651 | 0.00033651 | 0.00033651 |   0.0 |  0.00
Neigh   | 6.7662     | 6.7662     | 6.7662     |   0.0 | 17.62
Comm    | 0.1388     | 0.1388     | 0.1388     |   0.0 |  0.36
Output  | 3.1933     | 3.1933     | 3.1933     |   0.0 |  8.31
Modify  | 3.3604     | 3.3604     | 3.3604     |   0.0 |  8.75
Other   |            | 0.09246    |            |       |  0.24

Nlocal:           5000 ave        5000 max        5000 min
Histogram: 1 0 0 0 0 0 0 0 0 0
Nghost:            158 ave         158 max         158 min
Histogram: 1 0 0 0 0 0 0 0 0 0
Neighs:          70375 ave       70375 max       70375 min
Histogram: 1 0 0 0 0 0 0 0 0 0

Total # of neighbors = 70375
Ave neighs/atom = 14.075
Ave special neighs/atom = 0
Neighbor list builds = 2535
Dangerous builds = 0
unfix fLANG_standard
fix fLANG_standard         standard_beads   langevin ${my_temp} ${my_temp} ${my_Tdamp} 123 zero yes
fix fLANG_standard         standard_beads   langevin 1 ${my_temp} ${my_Tdamp} 123 zero yes
fix fLANG_standard         standard_beads   langevin 1 1 ${my_Tdamp} 123 zero yes
fix fLANG_standard         standard_beads   langevin 1 1 1 123 zero yes
#*********************************************
# NVT equilibration
#*********************************************
run   40000
Generated 0 of 0 mixed pair_coeff terms from geometric mixing rule
Per MPI rank memory allocation (min/avg/max) = 23.94 | 23.94 | 23.94 Mbytes
   Step          Temp          E_pair         E_mol          TotEng         Press     
     10000   0.99412868    -11.303876      0             -9.812981      -0.00022865964
     10100   0.99799849    -11.295274      0             -9.7985759     -0.00025575715
     10200   0.98262782    -11.30947       0             -9.8358233     -0.00026051759
     10300   1.0054608     -11.319951      0             -9.8120618     -0.00022335157
     10400   0.99309765    -11.319733      0             -9.8303846     -0.00023637785
     10500   1.0005789     -11.284759      0             -9.7841911     -0.00027830395
     10600   0.98593793    -11.299649      0             -9.8210379     -0.00032238901
     10700   0.98836754    -11.317092      0             -9.8348368     -0.00023875455
     10800   1.0328041     -11.331321      0             -9.7824246     -0.00021053265
     10900   0.99482821    -11.34404       0             -9.8520963     -0.00023478558
     11000   1.0019467     -11.357004      0             -9.8543851     -0.00027580969
     11100   0.9910833     -11.301276      0             -9.8149485     -0.00022533618
     11200   0.99078357    -11.324083      0             -9.8382048     -0.00027436269
     11300   1.0033341     -11.354541      0             -9.8498413     -0.00022338821
     11400   1.0072062     -11.335526      0             -9.8250187     -0.00023528066
     11500   0.99281855    -11.328253      0             -9.8393234     -0.00025440094
     11600   0.9940758     -11.325624      0             -9.8348086     -0.00022406987
     11700   1.0142201     -11.30518       0             -9.7841541     -0.00021593296
     11800   0.984784      -11.287314      0             -9.8104334     -0.00023945733
     11900   1.0067658     -11.332135      0             -9.8222887     -0.00019371625
     12000   0.9912098     -11.307993      0             -9.8214759     -0.00020163373
     12100   0.99325158    -11.296314      0             -9.8067342     -0.00021120242
     12200   0.97956513    -11.306229      0             -9.8371751     -0.00025396782
     12300   1.0026946     -11.303024      0             -9.7992832     -0.00027193928
     12400   1.0011646     -11.284004      0             -9.782557      -0.00028306225
     12500   0.98847839    -11.277795      0             -9.7953743     -0.00028164646
     12600   0.98998798    -11.275138      0             -9.7904529     -0.00026464139
     12700   0.99652366    -11.329725      0             -9.8352389     -0.00029434446
     12800   0.97702258    -11.245433      0             -9.780192      -0.00023931253
     12900   1.0089063     -11.276145      0             -9.7630885     -0.00021487362
     13000   1.013434      -11.336211      0             -9.8163641     -0.00023058592
     13100   0.99054639    -11.331233      0             -9.8457105     -0.00024332527
     13200   0.97482307    -11.301035      0             -9.8390927     -0.0002812789 
     13300   0.99600674    -11.347225      0             -9.8535134     -0.00022293048
     13400   0.98070228    -11.287994      0             -9.817235      -0.00024931045
     13500   0.99483898    -11.332646      0             -9.8406862     -0.0002239885 
     13600   0.98403861    -11.292983      0             -9.81722       -0.00023024084
     13700   1.000034      -11.308694      0             -9.8089427     -0.00018414225
     13800   1.0150802     -11.303702      0             -9.7813865     -0.00017252136
     13900   1.0136442     -11.300715      0             -9.7805527     -0.00023386583
     14000   0.99594644    -11.305972      0             -9.8123514     -0.00025523451
     14100   1.0009861     -11.322849      0             -9.8216705     -0.00026193846
     14200   1.0002922     -11.313973      0             -9.8138344     -0.0002155325 
     14300   0.97955086    -11.329045      0             -9.8600124     -0.00020233889
     14400   1.0054292     -11.297753      0             -9.7899107     -0.00021806793
     14500   0.97699789    -11.266373      0             -9.8011691     -0.00028665252
     14600   0.9920491     -11.29496       0             -9.807184      -0.0002689813 
     14700   0.99333804    -11.296096      0             -9.806387      -0.00027538802
     14800   1.008523      -11.328516      0             -9.8160345     -0.00025851693
     14900   1.00688       -11.350965      0             -9.8409471     -0.00025540901
     15000   1.0001694     -11.310423      0             -9.8104692     -0.0002557317 
     15100   0.99285689    -11.313665      0             -9.8246774     -0.00027262416
     15200   0.9876741     -11.290617      0             -9.8094017     -0.00024714115
     15300   1.0049257     -11.34993       0             -9.8428431     -0.00024263256
     15400   1.0197672     -11.275859      0             -9.7465146     -0.00018278452
     15500   0.99022479    -11.282513      0             -9.7974729     -0.00026051849
     15600   1.0074632     -11.330743      0             -9.8198509     -0.00022388152
     15700   1.0076765     -11.307826      0             -9.7966132     -0.00018607202
     15800   1.0057376     -11.318247      0             -9.8099424     -0.00022509536
     15900   0.99772312    -11.269284      0             -9.7729988     -0.00025618695
     16000   0.98033857    -11.300142      0             -9.8299284     -0.00026971788
     16100   0.99141251    -11.325238      0             -9.838417      -0.00025576806
     16200   0.99425052    -11.32586       0             -9.834783      -0.00028910976
     16300   1.0017261     -11.321054      0             -9.8187656     -0.00026167156
     16400   1.0083217     -11.321038      0             -9.8088578     -0.00022357815
     16500   1.0116246     -11.333552      0             -9.8164187     -0.00025296725
     16600   0.99069522    -11.302057      0             -9.8163116     -0.00025054897
     16700   0.99805231    -11.30531       0             -9.8085306     -0.00023984618
     16800   0.97491557    -11.332508      0             -9.8704272     -0.00026325254
     16900   1.0151131     -11.351447      0             -9.8290816     -0.00019477952
     17000   1.0215728     -11.314536      0             -9.7824836     -0.00015139242
     17100   0.99915989    -11.360405      0             -9.8619654     -0.00020993724
     17200   0.98141981    -11.339214      0             -9.8673785     -0.00021119469
     17300   1.008091      -11.358008      0             -9.8461738     -0.00023872825
     17400   0.99754956    -11.332686      0             -9.8366605     -0.00031137815
     17500   1.0170571     -11.328822      0             -9.8035413     -0.0002570298 
     17600   1.0180913     -11.342162      0             -9.8153303     -0.00022338742
     17700   1.0134287     -11.359824      0             -9.8399854     -0.00026360841
     17800   1.005076      -11.325466      0             -9.8181539     -0.00025987555
     17900   0.99681552    -11.297031      0             -9.8021068     -0.00022252816
     18000   1.01569       -11.326995      0             -9.8037646     -0.00023830038
     18100   1.0011386     -11.334799      0             -9.8333919     -0.00024092177
     18200   0.99542725    -11.352367      0             -9.8595251     -0.00026822358
     18300   0.98842778    -11.365433      0             -9.8830876     -0.00025219755
     18400   1.0071969     -11.343884      0             -9.8333911     -0.00020171918
     18500   1.0099204     -11.299466      0             -9.784888      -0.00026032296
     18600   1.0060507     -11.333605      0             -9.8248307     -0.00022993804
     18700   0.99756016    -11.314032      0             -9.8179907     -0.00019903202
     18800   0.99569985    -11.327264      0             -9.8340133     -0.00014855993
     18900   1.0020007     -11.304128      0             -9.8014277     -0.00020919938
     19000   0.99297625    -11.324292      0             -9.8351255     -0.00026342631
     19100   0.99589725    -11.300377      0             -9.8068298     -0.00028553116
     19200   1.0301113     -11.310832      0             -9.7659745     -0.00025180801
     19300   1.0137487     -11.274182      0             -9.7538633     -0.00021830568
     19400   0.99084799    -11.298013      0             -9.8120386     -0.00021917669
     19500   0.99873202    -11.265907      0             -9.7681088     -0.00022836025
     19600   0.98484442    -11.333199      0             -9.856228      -0.00029002574
     19700   1.0211392     -11.325394      0             -9.793992      -0.00022984702
     19800   1.0048859     -11.255753      0             -9.7487255     -0.00024725906
     19900   1.0065328     -11.266287      0             -9.7567893     -0.00023817845
     20000   0.99618767    -11.259072      0             -9.765089      -0.00027895663
     20100   1.0174153     -11.263663      0             -9.737845      -0.00016377021
     20200   1.0043508     -11.282438      0             -9.7762132     -0.00018497872
     20300   0.99901614    -11.263023      0             -9.7647985     -0.00020594209
     20400   1.0067476     -11.313352      0             -9.8035328     -0.00025325037
     20500   1.0029685     -11.331473      0             -9.8273212     -0.00026949337
     20600   0.99675988    -11.311241      0             -9.8163997     -0.00026780779
     20700   0.98633459    -11.270296      0             -9.7910897     -0.00019919048
     20800   0.99042889    -11.264551      0             -9.7792053     -0.00023846846
     20900   1.004548      -11.278691      0             -9.7721703     -0.00027880836
     21000   1.0085458     -11.283148      0             -9.7706317     -0.00026415001
     21100   1.0108863     -11.294805      0             -9.7787792     -0.00021215648
     21200   1.0029612     -11.337433      0             -9.8332923     -0.00022289208
     21300   1.0093389     -11.323105      0             -9.8093992     -0.00025453216
     21400   1.0093727     -11.278571      0             -9.7648148     -0.00021920069
     21500   1.0072677     -11.273039      0             -9.7624393     -0.00013587025
     21600   0.99563732    -11.339918      0             -9.8467605     -0.00024034896
     21700   0.97193389    -11.312977      0             -9.855368      -0.00022788205
     21800   1.0140556     -11.311954      0             -9.7911752     -0.00020585078
     21900   0.99204961    -11.339658      0             -9.8518817     -0.00025497399
     22000   0.98628813    -11.298418      0             -9.8192818     -0.0002637757 
     22100   1.0069546     -11.30123       0             -9.7911005     -0.00023010704
     22200   1.0032524     -11.33218       0             -9.8276019     -0.00021484789
     22300   1.0046336     -11.329643      0             -9.8229942     -0.00018399934
     22400   1.0059824     -11.290564      0             -9.7818923     -0.00017013726
     22500   1.004437      -11.319924      0             -9.8135698     -0.00021577633
     22600   0.99947231    -11.326931      0             -9.8280219     -0.00021045732
     22700   1.0108792     -11.271965      0             -9.7559494     -0.00020250888
     22800   0.9892254     -11.293778      0             -9.8102368     -0.0002993795 
     22900   0.98934142    -11.32329       0             -9.8395748     -0.00024388954
     23000   0.99785516    -11.346244      0             -9.849761      -0.00025777705
     23100   0.99657227    -11.312669      0             -9.8181099     -0.00026230218
     23200   0.97625977    -11.297398      0             -9.8333014     -0.00029453603
     23300   1.0055598     -11.31709       0             -9.8090517     -0.00022294275
     23400   1.00363       -11.28075       0             -9.7756065     -0.00018707561
     23500   0.9842386     -11.295507      0             -9.8194444     -0.00024903995
     23600   1.0024309     -11.302276      0             -9.7989303     -0.00026573834
     23700   0.99136259    -11.316386      0             -9.8296396     -0.00025897439
     23800   0.99263457    -11.284929      0             -9.7962752     -0.00025079646
     23900   0.98948702    -11.292619      0             -9.8086858     -0.0002397823 
     24000   1.0112237     -11.320014      0             -9.8034815     -0.00021860461
     24100   1.0068917     -11.317289      0             -9.8072533     -0.00023256586
     24200   1.008473      -11.33874       0             -9.8263333     -0.00024529067
     24300   1.0024564     -11.301689      0             -9.7983053     -0.00027833316
     24400   0.99036471    -11.309716      0             -9.8244663     -0.0002668873 
     24500   0.99513334    -11.299169      0             -9.8067672     -0.00028466321
     24600   1.0366523     -11.318048      0             -9.7633803     -0.00018770105
     24700   0.99614972    -11.305402      0             -9.811476      -0.00027976842
     24800   1.0038455     -11.315999      0             -9.8105315     -0.00028613153
     24900   0.98435147    -11.306856      0             -9.830624      -0.00031865106
     25000   0.99647588    -11.323805      0             -9.8293899     -0.00026854664
     25100   1.0069281     -11.309032      0             -9.7989417     -0.00017542364
     25200   0.99490599    -11.301535      0             -9.8094742     -0.00021028412
     25300   0.98971517    -11.317844      0             -9.8335679     -0.00021470486
     25400   1.003231      -11.30922       0             -9.8046748     -0.00019101117
     25500   0.99677105    -11.30863       0             -9.8137722     -0.00018748447
     25600   0.99784875    -11.308853      0             -9.8123788     -0.00021444218
     25700   1.0117084     -11.246972      0             -9.729713      -0.00023381813
     25800   1.0277551     -11.330228      0             -9.7889032     -0.00024005483
     25900   0.99962644    -11.269505      0             -9.7703652     -0.00023454819
     26000   1.0145947     -11.312341      0             -9.7907528     -0.00021047916
     26100   1.0223237     -11.309314      0             -9.7761346     -0.00017678606
     26200   0.99501925    -11.297744      0             -9.8055139     -0.00021409023
     26300   1.0105111     -11.282064      0             -9.7666009     -0.00018781162
     26400   0.98908697    -11.311345      0             -9.8280108     -0.00021442733
     26500   1.0126771     -11.298511      0             -9.7797992     -0.00021951925
     26600   0.99828878    -11.28261       0             -9.7854765     -0.000244358  
     26700   1.0031632     -11.264398      0             -9.7599539     -0.00025035698
     26800   0.9948607     -11.271115      0             -9.7791225     -0.00026580368
     26900   1.0017136     -11.290282      0             -9.788012      -0.00028323727
     27000   1.0145659     -11.302556      0             -9.7810111     -0.00024924083
     27100   0.98879124    -11.27591       0             -9.7930193     -0.00022170278
     27200   0.99460559    -11.301509      0             -9.8098987     -0.0002590641 
     27300   0.99489792    -11.320776      0             -9.8287271     -0.00029538281
     27400   0.98866018    -11.274969      0             -9.7922752     -0.00026842705
     27500   0.99695524    -11.309036      0             -9.8139025     -0.00032424661
     27600   0.99473438    -11.291093      0             -9.7992902     -0.00026246527
     27700   1.0065136     -11.334125      0             -9.8246561     -0.00024403049
     27800   1.0160564     -11.290918      0             -9.7671381     -0.00019461818
     27900   1.0093302     -11.318319      0             -9.8046267     -0.00022859065
     28000   0.9962977     -11.292124      0             -9.7979759     -0.0002000212 
     28100   1.0133339     -11.3054        0             -9.7857033     -0.00020793461
     28200   0.99858012    -11.324283      0             -9.8267126     -0.00023075249
     28300   1.0137179     -11.330806      0             -9.8105333     -0.00020140835
     28400   1.032192      -11.319849      0             -9.7718703     -0.0001955707 
     28500   1.009495      -11.296947      0             -9.7830069     -0.0001823179 
     28600   1.000216      -11.290417      0             -9.7903925     -0.00022121433
     28700   1.0071272     -11.322618      0             -9.8122294     -0.00018852681
     28800   1.0008714     -11.334786      0             -9.833779      -0.00022301293
     28900   0.99836764    -11.322254      0             -9.825002      -0.00026397148
     29000   0.98471696    -11.297212      0             -9.8204321     -0.00024134967
     29100   0.99652764    -11.318734      0             -9.8242414     -0.00029824156
     29200   0.98951773    -11.279994      0             -9.796014      -0.00028546342
     29300   0.99490239    -11.347362      0             -9.8553067     -0.00030509774
     29400   0.97560878    -11.29981       0             -9.83669       -0.00027019787
     29500   0.99868817    -11.318155      0             -9.8204221     -0.00020471093
     29600   1.0115284     -11.273174      0             -9.756185      -0.00017312554
     29700   0.99588355    -11.280357      0             -9.7868308     -0.00023403649
     29800   1.0161278     -11.32838       0             -9.8044929     -0.00020964642
     29900   0.9763213     -11.324154      0             -9.8599647     -0.00018695393
     30000   0.99665896    -11.328621      0             -9.8339316     -0.00025902361
     30100   0.99499254    -11.345568      0             -9.8533775     -0.0002486832 
     30200   0.97706054    -11.310506      0             -9.845208      -0.00020442408
     30300   1.0069271     -11.345559      0             -9.8354709     -0.00023050937
     30400   1.0207807     -11.326131      0             -9.7952662     -0.00016555921
     30500   0.99529446    -11.316861      0             -9.8242177     -0.00023573821
     30600   0.97690098    -11.306778      0             -9.8417198     -0.00024902055
     30700   1.006592      -11.299899      0             -9.7903127     -0.00021611717
     30800   1.0007513     -11.28198       0             -9.7811528     -0.0002427256 
     30900   1.0035732     -11.280501      0             -9.7754427     -0.0002816595 
     31000   0.99396277    -11.294432      0             -9.8037858     -0.00027087063
     31100   1.0054957     -11.338012      0             -9.83007       -0.0002027901 
     31200   0.99382091    -11.283377      0             -9.792944      -0.00022996457
     31300   1.0001899     -11.296504      0             -9.7965191     -0.00023676154
     31400   1.0096285     -11.308813      0             -9.7946728     -0.0002817433 
     31500   1.0038202     -11.288151      0             -9.7827222     -0.00030769244
     31600   1.0029761     -11.301669      0             -9.7975061     -0.00030787924
     31700   1.0042367     -11.28341       0             -9.7773566     -0.0002582359 
     31800   0.99863639    -11.350433      0             -9.8527781     -0.00023104439
     31900   1.0117314     -11.324094      0             -9.8068004     -0.00019365935
     32000   1.0070346     -11.317615      0             -9.8073656     -0.0002827473 
     32100   0.99569608    -11.273072      0             -9.7798267     -0.00029011283
     32200   0.99541016    -11.299521      0             -9.8067042     -0.00023207028
     32300   0.99641005    -11.36153       0             -9.8672141     -0.00022905938
     32400   0.97026058    -11.340197      0             -9.8850972     -0.00024155597
     32500   0.99750985    -11.383642      0             -9.8876763     -0.00022126059
     32600   0.9849561     -11.315719      0             -9.8385808     -0.0001607514 
     32700   0.98631937    -11.342091      0             -9.8629074     -0.0002056951 
     32800   0.9925686     -11.35872       0             -9.8701647     -0.0002378283 
     32900   0.99546311    -11.349103      0             -9.8562073     -0.00023570213
     33000   0.98365651    -11.339774      0             -9.8645843     -0.00025445692
     33100   0.97603706    -11.323696      0             -9.8599331     -0.00032569427
     33200   0.97420642    -11.310179      0             -9.849162      -0.00034117545
     33300   1.0000528     -11.290202      0             -9.7904231     -0.00021983211
     33400   0.98837272    -11.274502      0             -9.792239      -0.00023000499
     33500   0.99717584    -11.298029      0             -9.8025647     -0.00024693928
     33600   0.98986393    -11.255606      0             -9.7711066     -0.00023169383
     33700   0.9990868     -11.27895       0             -9.7806199     -0.00024240217
     33800   0.9808469     -11.30005       0             -9.8290736     -0.00023476217
     33900   0.99121772    -11.297718      0             -9.8111892     -0.00026899087
     34000   0.99565465    -11.27513       0             -9.7819463     -0.00027008404
     34100   0.98937001    -11.251719      0             -9.7679606     -0.00029382887
     34200   1.0102446     -11.280292      0             -9.7652281     -0.00028623077
     34300   1.0045177     -11.266648      0             -9.7601733     -0.00022578501
     34400   0.98658385    -11.277202      0             -9.7976224     -0.00024570571
     34500   0.99393833    -11.276989      0             -9.78638       -0.00027219369
     34600   1.0035728     -11.297732      0             -9.7926739     -0.00031161692
     34700   0.9854942     -11.299169      0             -9.821223      -0.00030367493
     34800   1.0103142     -11.28503       0             -9.7698618     -0.00023844822
     34900   0.99654031    -11.299837      0             -9.8053253     -0.00023889944
     35000   0.99301163    -11.304845      0             -9.815625      -0.00023113061
     35100   1.0001952     -11.311421      0             -9.8114285     -0.00021848699
     35200   1.0130785     -11.333411      0             -9.8140969     -0.00027218534
     35300   0.97101726    -11.299305      0             -9.8430705     -0.00034039178
     35400   0.99306413    -11.302711      0             -9.8134125     -0.00021632117
     35500   0.99675005    -11.346162      0             -9.8513364     -0.00020745552
     35600   1.0082756     -11.35112       0             -9.8390085     -0.00018728563
     35700   1.0068778     -11.303446      0             -9.793431      -0.00023865505
     35800   1.024007      -11.261904      0             -9.7262006     -0.00023290302
     35900   1.0147112     -11.27965       0             -9.7578872     -0.00021640623
     36000   1.0194323     -11.296399      0             -9.7675561     -0.00026280623
     36100   1.0042262     -11.280965      0             -9.7749273     -0.00027443827
     36200   1.0061997     -11.304726      0             -9.7957281     -0.00025676811
     36300   0.99066789    -11.336958      0             -9.8512537     -0.00027513274
     36400   1.0014789     -11.345905      0             -9.8439874     -0.00022905915
     36500   0.99605782    -11.315427      0             -9.8216388     -0.00026788136
     36600   0.99589025    -11.34727       0             -9.8537335     -0.00026746073
     36700   0.9779689     -11.319828      0             -9.8531676     -0.00026966148
     36800   0.98509813    -11.351197      0             -9.8738448     -0.00025288112
     36900   1.0100515     -11.346207      0             -9.8314328     -0.0001852779 
     37000   0.99096198    -11.340949      0             -9.8548034     -0.00018464015
     37100   1.0001826     -11.318706      0             -9.8187316     -0.00018382562
     37200   1.0025124     -11.284855      0             -9.7813872     -0.00028008224
     37300   0.99869816    -11.297303      0             -9.7995556     -0.00021511019
     37400   1.0009054     -11.319967      0             -9.8189095     -0.00019154246
     37500   1.0010127     -11.298909      0             -9.7976906     -0.00026785921
     37600   0.99478147    -11.270612      0             -9.7787385     -0.00025553506
     37700   1.0088004     -11.360823      0             -9.8479251     -0.00024465138
     37800   0.98320548    -11.293703      0             -9.8191894     -0.00023021617
     37900   0.97878381    -11.316838      0             -9.8489562     -0.00021043422
     38000   0.98602116    -11.362495      0             -9.8837587     -0.00020430908
     38100   0.99642177    -11.327656      0             -9.8333226     -0.0002289561 
     38200   1.0262385     -11.311532      0             -9.7724825     -0.00025305067
     38300   1.0077701     -11.279875      0             -9.7685227     -0.00023962464
     38400   0.99385439    -11.27207       0             -9.7815868     -0.00023180396
     38500   1.004469      -11.267455      0             -9.7610523     -0.00024788297
     38600   1.001982      -11.297472      0             -9.7947999     -0.00025019699
     38700   1.0171443     -11.278506      0             -9.7530951     -0.00018885667
     38800   1.0006239     -11.306132      0             -9.8054965     -0.0002015491 
     38900   0.98190456    -11.310013      0             -9.8374508     -0.00023683665
     39000   1.0012624     -11.316778      0             -9.8151846     -0.00021883578
     39100   0.98032775    -11.2905        0             -9.8203021     -0.00023048577
     39200   0.99780216    -11.289006      0             -9.7926016     -0.00024952478
     39300   1.0068943     -11.313679      0             -9.8036399     -0.00021896795
     39400   1.0040558     -11.292578      0             -9.7867954     -0.000227084  
     39500   0.9766251     -11.259239      0             -9.7945944     -0.00022584952
     39600   1.0039591     -11.30726       0             -9.8016227     -0.00020686655
     39700   1.0114409     -11.310725      0             -9.7938668     -0.00023038089
     39800   0.99299683    -11.299865      0             -9.8106674     -0.00024137659
     39900   1.0084815     -11.315437      0             -9.8030177     -0.00018699557
     40000   0.99270062    -11.315567      0             -9.826814      -0.0002839781 
     40100   0.98893904    -11.292596      0             -9.8094845     -0.00028479233
     40200   0.99109055    -11.288749      0             -9.8024103     -0.00023034901
     40300   1.0082616     -11.310986      0             -9.7988965     -0.00024227928
     40400   0.9953872     -11.328011      0             -9.8352292     -0.00026091206
     40500   0.99573541    -11.305968      0             -9.8126636     -0.00022264842
     40600   0.99664009    -11.320372      0             -9.8257106     -0.00020079075
     40700   1.0124335     -11.330657      0             -9.812311      -0.00023583518
     40800   0.9930754     -11.295026      0             -9.8057112     -0.00026549261
     40900   0.9968329     -11.295932      0             -9.8009815     -0.00025161556
     41000   1.0013108     -11.315937      0             -9.8142717     -0.0002687297 
     41100   0.99823586    -11.270471      0             -9.7734171     -0.00026537651
     41200   0.99781364    -11.297352      0             -9.8009311     -0.00026878058
     41300   1.0055728     -11.332506      0             -9.8244484     -0.00023691889
     41400   0.98013763    -11.316881      0             -9.8469689     -0.0003227066 
     41500   0.98529126    -11.322784      0             -9.8451431     -0.00029670781
     41600   1.0126492     -11.310234      0             -9.7915642     -0.00023843084
     41700   1.006995      -11.342391      0             -9.8322006     -0.00025260862
     41800   1.0163577     -11.31488       0             -9.7906486     -0.00023470432
     41900   0.97786734    -11.304712      0             -9.8382044     -0.00031045458
     42000   0.98748048    -11.291211      0             -9.8102863     -0.00021888178
     42100   1.0060684     -11.318487      0             -9.8096867     -0.00019982185
     42200   1.0095339     -11.312643      0             -9.7986448     -0.00019625393
     42300   1.0063447     -11.252988      0             -9.7437726     -0.00022502912
     42400   1.0004407     -11.305903      0             -9.8055418     -0.00027459822
     42500   0.99629177    -11.31154       0             -9.8174012     -0.00022503554
     42600   1.0006361     -11.327095      0             -9.8264408     -0.00025427691
     42700   0.99824265    -11.304195      0             -9.8071308     -0.00024660509
     42800   1.0042871     -11.330517      0             -9.824388      -0.0001867199 
     42900   0.98870409    -11.350401      0             -9.8676416     -0.00023125345
     43000   0.97844587    -11.345677      0             -9.8783017     -0.00024511908
     43100   0.99311397    -11.343221      0             -9.8538481     -0.00025679854
     43200   0.9930847     -11.336237      0             -9.8469077     -0.00022588326
     43300   0.99370882    -11.326246      0             -9.8359813     -0.00022863032
     43400   0.99661741    -11.320925      0             -9.826298      -0.00022672325
     43500   1.0052289     -11.364554      0             -9.8570121     -0.00021508386
     43600   0.98112966    -11.351356      0             -9.8799555     -0.00021295069
     43700   0.99954673    -11.358064      0             -9.8590436     -0.00022301609
     43800   0.9939524     -11.335609      0             -9.8449786     -0.00023863687
     43900   1.0121557     -11.334552      0             -9.8166218     -0.00027563705
     44000   0.97995591    -11.291561      0             -9.8219208     -0.00030116156
     44100   0.99927371    -11.289976      0             -9.7913654     -0.00029033853
     44200   0.99317486    -11.32089       0             -9.8314259     -0.0002931488 
     44300   1.0122456     -11.299699      0             -9.7816339     -0.00021227161
     44400   0.99069991    -11.326379      0             -9.8406266     -0.00025781864
     44500   0.9904398     -11.328275      0             -9.8429123     -0.00025980851
     44600   1.0164046     -11.303978      0             -9.7796755     -0.00020307223
     44700   0.99937171    -11.355615      0             -9.8568573     -0.00023208146
     44800   0.99634746    -11.35265       0             -9.8584281     -0.00018593838
     44900   1.0073888     -11.353711      0             -9.8429299     -0.00016094705
     45000   0.99987311    -11.325257      0             -9.8257474     -0.00019044444
     45100   0.98041258    -11.314102      0             -9.8437768     -0.00023442802
     45200   0.98151692    -11.319498      0             -9.8475175     -0.00022045468
     45300   1.0028897     -11.332569      0             -9.8285349     -0.00022281338
     45400   0.99469082    -11.336412      0             -9.8446745     -0.00021189153
     45500   1.014423      -11.344119      0             -9.822789      -0.00018147866
     45600   1.0007676     -11.290383      0             -9.7895316     -0.00023681829
     45700   1.013002      -11.294961      0             -9.7757616     -0.00025995389
     45800   1.0026798     -11.311573      0             -9.807854      -0.0002194872 
     45900   1.0184148     -11.288966      0             -9.7616494     -0.00018023308
     46000   0.99711213    -11.284421      0             -9.7890517     -0.00022973712
     46100   1.0103793     -11.299967      0             -9.7847013     -0.00024096165
     46200   1.0078883     -11.304262      0             -9.7927316     -0.00025046533
     46300   1.0057803     -11.321035      0             -9.8126666     -0.00026644931
     46400   0.99045046    -11.308028      0             -9.8226491     -0.00023094471
     46500   1.0028075     -11.298248      0             -9.7943376     -0.00020280564
     46600   1.0029171     -11.285992      0             -9.7819175     -0.00022053402
     46700   0.99003905    -11.257884      0             -9.7731221     -0.00024621945
     46800   0.99886943    -11.2932        0             -9.7951957     -0.0002328529 
     46900   0.9933911     -11.293704      0             -9.803915      -0.00019684367
     47000   1.0160468     -11.350855      0             -9.8270899     -0.00018644927
     47100   0.99541667    -11.314253      0             -9.8214263     -0.00025548305
     47200   0.98183098    -11.273072      0             -9.8006196     -0.00021055755
     47300   0.99134229    -11.31149       0             -9.8247737     -0.00023463947
     47400   0.98908414    -11.323974      0             -9.8406447     -0.00021968286
     47500   1.0026637     -11.278162      0             -9.7744669     -0.00023008974
     47600   1.0030127     -11.265526      0             -9.7613082     -0.00025701895
     47700   1.0037629     -11.279063      0             -9.7737201     -0.00024064706
     47800   0.99698801    -11.299064      0             -9.8038814     -0.00022542894
     47900   0.98737391    -11.299706      0             -9.8189415     -0.0002695736 
     48000   1.0022201     -11.338523      0             -9.8354941     -0.00027094558
     48100   1.0230999     -11.308289      0             -9.7739461     -0.0001978123 
     48200   0.99804278    -11.314835      0             -9.8180701     -0.00021443817
     48300   0.98624719    -11.340746      0             -9.861671      -0.000239904  
     48400   0.99982174    -11.366099      0             -9.8666667     -0.00021529842
     48500   0.98576911    -11.308948      0             -9.8305896     -0.00020562499
     48600   1.008163      -11.321517      0             -9.8095748     -0.00024783208
     48700   1.0002825     -11.298035      0             -9.7979111     -0.00020233978
     48800   1.0113767     -11.334816      0             -9.8180543     -0.00020816825
     48900   1.0234793     -11.32706       0             -9.7921477     -0.00024385118
     49000   0.99458992    -11.305159      0             -9.813572      -0.00024569267
     49100   0.98105776    -11.31268       0             -9.8413881     -0.0002517992 
     49200   0.9773457     -11.296365      0             -9.8306397     -0.00023904296
     49300   0.99955587    -11.289693      0             -9.790659      -0.00024378926
     49400   1.0190671     -11.304497      0             -9.7762026     -0.00024655613
     49500   1.0001628     -11.302615      0             -9.8026709     -0.00026639784
     49600   1.0089867     -11.300357      0             -9.7871797     -0.0001776338 
     49700   0.99703284    -11.271621      0             -9.7763711     -0.00025036206
     49800   1.0037544     -11.281949      0             -9.7766189     -0.00027215986
     49900   1.0032551     -11.314325      0             -9.8097435     -0.00023204951
     50000   1.003915      -11.279954      0             -9.7743823     -0.00024104808
Loop time of 8399.52 on 1 procs for 40000 steps with 5000 atoms

Performance: 4114.521 tau/day, 4.762 timesteps/s, 23.811 katom-step/s
1.7% CPU use with 1 MPI tasks x no OpenMP threads

MPI task timing breakdown:
Section |  min time  |  avg time  |  max time  |%varavg| %total
---------------------------------------------------------------
Pair    | 3160.6     | 3160.6     | 3160.6     |   0.0 | 37.63
Bond    | 0.0015742  | 0.0015742  | 0.0015742  |   0.0 |  0.00
Neigh   | 2733.1     | 2733.1     | 2733.1     |   0.0 | 32.54
Comm    | 971.45     | 971.45     | 971.45     |   0.0 | 11.57
Output  | 1001.3     | 1001.3     | 1001.3     |   0.0 | 11.92
Modify  | 532.73     | 532.73     | 532.73     |   0.0 |  6.34
Other   |            | 0.3844     |            |       |  0.00

Nlocal:           5000 ave        5000 max        5000 min
Histogram: 1 0 0 0 0 0 0 0 0 0
Nghost:            166 ave         166 max         166 min
Histogram: 1 0 0 0 0 0 0 0 0 0
Neighs:          70561 ave       70561 max       70561 min
Histogram: 1 0 0 0 0 0 0 0 0 0

Total # of neighbors = 70561
Ave neighs/atom = 14.1122
Ave special neighs/atom = 0
Neighbor list builds = 10169
Dangerous builds = 0
write_restart lmpout_restart_01_t_nvt.dat
System init for write_restart ...
Generated 0 of 0 mixed pair_coeff terms from geometric mixing rule
# Remove membrane propagator
unfix fNVE_membrane
write_restart lmpout_restart_02_t_npt.dat
System init for write_restart ...
Generated 0 of 0 mixed pair_coeff terms from geometric mixing rule
#********************************************************************************
# Production run
#********************************************************************************
compute msd mem msd
fix      fNPH_membrane         mem     nph/asphere x ${my_press} ${my_press} ${my_Pdamp}  drag ${my_drag} dilate mem nreset ${my_nreset}
fix      fNPH_membrane         mem     nph/asphere x -500 ${my_press} ${my_Pdamp}  drag ${my_drag} dilate mem nreset ${my_nreset}
fix      fNPH_membrane         mem     nph/asphere x -500 -500 ${my_Pdamp}  drag ${my_drag} dilate mem nreset ${my_nreset}
fix      fNPH_membrane         mem     nph/asphere x -500 -500 500  drag ${my_drag} dilate mem nreset ${my_nreset}
fix      fNPH_membrane         mem     nph/asphere x -500 -500 500  drag 0 dilate mem nreset ${my_nreset}
fix      fNPH_membrane         mem     nph/asphere x -500 -500 500  drag 0 dilate mem nreset 100
fix_modify fNPH_membrane temp C_temp_baro press C_press_baro
fix fix_boxsize_output all ave/time 100 1 100 v_xwidth v_ywidth v_zwidth format "%18.6f" file lmpout_boxsize_cyl_mu3.0_P-1.0e-01_N005000_R04_Pdamp500.0_seed123.dat
fix fix_bar_deft all ave/time 100 1 100 c_C_press_def c_C_press_def[1] c_C_press_def[2] c_C_press_def[3] c_C_press_def[4] c_C_press_def[5] c_C_press_def[6] c_C_temp_def file lmpout_run_press_deft_cyl_mu3.0_P-1.0e-01_N005000_R04_Pdamp500.0_seed123.dat
fix fix_bar_tran all ave/time 100 1 100 c_C_press_tran c_C_press_tran[1] c_C_press_tran[2] c_C_press_tran[3] c_C_press_tran[4] c_C_press_tran[5] c_C_press_tran[6] c_C_temp_tran file lmpout_run_press_tran_cyl_mu3.0_P-1.0e-01_N005000_R04_Pdamp500.0_seed123.dat
run    1000000
Generated 0 of 0 mixed pair_coeff terms from geometric mixing rule
Per MPI rank memory allocation (min/avg/max) = 24.31 | 24.31 | 24.31 Mbytes
   Step          Temp          E_pair         E_mol          TotEng         Press          Volume    
     50000   1.003915      -11.279954      0             -9.7743823     -0.00024104808  6928200      
     50100   1.0164839     -11.480616      0             -9.956195       0.00017747794  6499430.4    
     50200   1.030724      -11.499544      0             -9.9537674      0.00021040177  6336211.8    
     50300   1.0078367     -11.541025      0             -10.029572      9.7294837e-05  6156382.8    
     50400   1.0128646     -11.600733      0             -10.08174       9.4321457e-05  5961910.1    
     50500   1.0047813     -11.617281      0             -10.11041       8.3838387e-05  5804420.2    
     50600   1.0017658     -11.648984      0             -10.146636      0.00015487512  5660716.2    
     50700   1.0253235     -11.683744      0             -10.146066      0.00015564706  5525348.9    
     50800   1.0134111     -11.674474      0             -10.154661      7.8888291e-05  5447285.6    
     50900   1.0145524     -11.703885      0             -10.182361      0.00012410082  5332544.7    
     51000   1.0022847     -11.713376      0             -10.21025       0.00013092555  5258744.9    
     51100   0.99624298    -11.707923      0             -10.213858      6.0385424e-05  5156868.9    
     51200   1.001349      -11.766456      0             -10.264732      6.3582423e-05  5067000      
     51300   1.0140025     -11.809074      0             -10.288375      0.00014212934  4963097.7    
     51400   0.98845161    -11.776931      0             -10.29455       7.8358271e-05  4929885.6    
     51500   1.0156585     -11.784177      0             -10.260994      0.00016749381  4844978.1    
     51600   1.0304578     -11.763187      0             -10.21781       8.3517546e-05  4795533.9    
     51700   1.0080363     -11.833562      0             -10.32181       4.5969755e-05  4707747.6    
     51800   1.0037374     -11.803879      0             -10.298575      0.00013300478  4662522.5    
     51900   0.99956311    -11.855768      0             -10.356723      6.1099826e-05  4600819.7    
     52000   1.0039317     -11.798972      0             -10.293376      3.7279193e-05  4603048      
     52100   1.0226745     -11.832974      0             -10.299269      6.3540442e-05  4552015.9    
     52200   0.99430202    -11.80426       0             -10.313105      9.8624997e-05  4511609.6    
     52300   1.008279      -11.825922      0             -10.313806      4.5576791e-05  4471234      
     52400   0.99528012    -11.801155      0             -10.308534     -1.9350074e-05  4435529.1    
     52500   1.0076744     -11.793044      0             -10.281835      8.080771e-05   4388652.8    
     52600   1.0063849     -11.840114      0             -10.330838      2.4370984e-05  4353513.7    
     52700   0.9876903     -11.83181       0             -10.350571      6.8303389e-05  4315505.7    
     52800   0.99888505    -11.842807      0             -10.344779      2.5180702e-07  4303270.3    
     52900   0.99998873    -11.850899      0             -10.351216      4.8268474e-05  4262934.3    
     53000   0.98832473    -11.826904      0             -10.344713     -1.5350985e-05  4243696.1    
     53100   0.99591298    -11.861429      0             -10.367858      8.0171889e-05  4199177.9    
     53200   1.0053304     -11.830545      0             -10.322851      0.00014770258  4156186.5    
     53300   0.99939455    -11.891917      0             -10.393125      6.2721985e-05  4137817      
     53400   1.0044349     -11.87564       0             -10.369289      8.4050332e-05  4123540.6    
     53500   0.99274646    -11.883052      0             -10.39423       2.8928077e-05  4111751.7    
     53600   0.98720376    -11.863926      0             -10.383417     -5.5997078e-05  4110395.2    
     53700   0.99351497    -11.874369      0             -10.384394     -3.6867953e-05  4078575.3    
     53800   1.0007193     -11.87856       0             -10.377782      2.7884782e-05  4062019.3    
     53900   0.99495235    -11.871732      0             -10.379602      0.0001159475   4024509.1    
     54000   1.013682      -11.914077      0             -10.393858      7.6353245e-05  4014453.7    
     54100   1.0006405     -11.942713      0             -10.442053      1.143322e-05   3987766.2    
     54200   0.97391794    -11.890876      0             -10.430291      3.0344101e-06  3976327.2    
     54300   0.9804601     -11.911181      0             -10.440785      6.2441609e-05  3943959.3    
     54400   1.0058268     -11.928627      0             -10.420189      1.0077644e-05  3939376.7    
     54500   0.9965336     -11.919054      0             -10.424553      7.3532381e-05  3919064.4    
     54600   0.98613701    -11.909767      0             -10.430857     -3.7830989e-05  3916690.5    
     54700   1.0089931     -11.956807      0             -10.44362       2.2798058e-05  3887492.3    
     54800   0.9928684     -11.943985      0             -10.45498       4.4025602e-05  3856194.9    
     54900   0.98329708    -11.96814       0             -10.493489     -1.4211172e-05  3840948.8    
     55000   0.98943354    -11.979328      0             -10.495475      5.757647e-05   3813674.2    
     55100   1.005243      -11.951568      0             -10.444005      0.00010447394  3775615.3    
     55200   1.0101693     -11.927118      0             -10.412167     -4.1290796e-05  3766776      
     55300   0.99016985    -11.958014      0             -10.473057      6.6112673e-05  3718901.6    
     55400   0.99473692    -11.915279      0             -10.423472      2.402559e-05   3699439.1    
     55500   0.99121414    -11.899182      0             -10.412658     -4.5236264e-05  3692768.4    
     55600   1.0043499     -11.947513      0             -10.44129       6.3694527e-05  3669660.7    
     55700   0.99437543    -11.957188      0             -10.465923      3.7045627e-05  3647237.3    
     55800   0.99801844    -11.962978      0             -10.46625       3.2179331e-05  3640024.1    
     55900   0.99493961    -11.982468      0             -10.490357      7.5511338e-05  3617889.3    
     56000   1.0072254     -11.972163      0             -10.461627      0.00012675767  3600300.9    
     56100   1.006529      -11.949509      0             -10.440018     -3.9577754e-05  3600766.5    
     56200   0.99220555    -11.92841       0             -10.440399      5.977224e-05   3572063.8    
     56300   1.0144921     -11.993903      0             -10.472469      8.7183731e-06  3537404.3    
     56400   1.0080383     -11.949677      0             -10.437922      0.00011843611  3516771.4    
     56500   1.0209111     -11.964702      0             -10.433642      0.00012126444  3510901.4    
     56600   1.0046464     -12.015554      0             -10.508885     -3.0477296e-05  3515514.4    
     56700   1.0101288     -11.973337      0             -10.458446     -6.4349121e-05  3523872.3    
     56800   1.0054208     -11.983559      0             -10.475729      0.00014141522  3492878      
     56900   0.97418275    -11.962564      0             -10.501582      0.00015989849  3494721.3    
     57000   1.0065688     -11.964666      0             -10.455115      7.119749e-05   3513723.2    
     57100   0.99583118    -11.951497      0             -10.458049      7.8077853e-05  3499376.3    
     57200   1.0179826     -11.956158      0             -10.42949       0.00016539767  3477690.9    
     57300   0.99493671    -11.935367      0             -10.44326       2.0722518e-06  3475907.4    
     57400   1.0135199     -11.982933      0             -10.462958      8.2614282e-05  3444865.8    
     57500   1.0073339     -11.972674      0             -10.461975      9.5404134e-05  3428770.9    
     57600   0.98312717    -11.942126      0             -10.46773       1.7788584e-05  3426354      
     57700   1.0153394     -11.92741       0             -10.404705      0.00013548741  3408725.8    
     57800   1.0262535     -12.009907      0             -10.470835     -3.6971731e-06  3396967.6    
     57900   1.0057385     -11.989756      0             -10.48145       1.2518794e-05  3386283      
     58000   0.99547546    -11.961962      0             -10.469048      4.9737683e-05  3375764.2    
     58100   1.0188286     -12.018709      0             -10.490771      5.1534865e-06  3362914.8    
     58200   1.0062159     -11.992493      0             -10.483471      0.00012038101  3343907.7    
     58300   1.0249391     -12.034476      0             -10.497375      0.00012377489  3345015.8    
     58400   1.0079571     -12.033467      0             -10.521834     -6.4266999e-05  3344494.3    
     58500   1.0010833     -12.004561      0             -10.503236      4.5573143e-05  3331041.9    
     58600   0.99114044    -11.98398       0             -10.497567      7.2001255e-05  3327097.3    
     58700   1.0054891     -12.02255       0             -10.514618      0.00011665141  3310871      
     58800   1.0088552     -11.955132      0             -10.442152      4.8729804e-06  3315088      
     58900   0.99372756    -11.972273      0             -10.48198      -2.9002327e-05  3323045.5    
     59000   0.98718769    -11.989858      0             -10.509372     -3.4816239e-05  3304837.4    
     59100   1.0018819     -11.983674      0             -10.481152      8.9819318e-05  3267492.2    
     59200   0.99976082    -11.984948      0             -10.485607      1.0644446e-05  3266348.1    
     59300   0.99410411    -11.973949      0             -10.483092     -0.00011220557  3269610      
     59400   0.9901434     -11.961086      0             -10.476168      5.7800614e-05  3239135.3    
     59500   1.0039073     -11.990438      0             -10.484878     -3.0963382e-05  3234668.2    
     59600   0.98110951    -12.009699      0             -10.538329      1.8328901e-05  3221354.8    
     59700   0.99718334    -11.995958      0             -10.500482      5.9377544e-05  3219852.9    
     59800   1.0004079     -12.003099      0             -10.502787      3.2263385e-05  3228456.7    
     59900   1.0034563     -12.006511      0             -10.501628     -1.1457223e-05  3223526.3    
     60000   1.009192      -12.03121       0             -10.517724     -1.8130788e-06  3207475.4    
     60100   1.0128908     -12.04268       0             -10.523647      8.2412085e-05  3190509.1    
     60200   1.0012371     -12.020601      0             -10.519045      8.1735842e-05  3186767.1    
     60300   1.0022343     -11.987155      0             -10.484104      0.00010073031  3178132.8    
     60400   1.0118578     -11.987172      0             -10.469689      2.1142313e-05  3181320.8    
     60500   0.99636791    -12.04333       0             -10.549078      4.6060044e-05  3152758.9    
     60600   0.9975908     -12.027415      0             -10.531328     -9.6263798e-05  3166677.8    
     60700   0.99448548    -12.03575       0             -10.54432       6.7399079e-05  3137135.8    
     60800   0.99175388    -11.98647       0             -10.499137      4.9668454e-05  3140403.3    
     60900   0.99911565    -11.973375      0             -10.475002      3.2454515e-05  3132964.7    
     61000   1.0053667     -12.025355      0             -10.517607      3.0619129e-05  3131458.8    
     61100   1.0030677     -11.974531      0             -10.47023       0.00012390935  3124372.7    
     61200   1.0017509     -12.01468       0             -10.512354      3.0577004e-05  3116735.3    
     61300   1.0115504     -12.013977      0             -10.496954      1.2119955e-05  3123908.4    
     61400   1.0115491     -12.034598      0             -10.517578      4.9743518e-05  3107061      
     61500   1.008227      -12.042155      0             -10.530117     -2.6785441e-05  3112425.8    
     61600   0.99157449    -12.024791      0             -10.537727      2.8130319e-05  3099415.8    
     61700   0.9959361     -12.027359      0             -10.533753     -4.8929148e-05  3100732.1    
     61800   1.0010543     -11.995307      0             -10.494026      8.7722151e-05  3093547      
     61900   1.0251018     -12.031628      0             -10.494283      2.9860896e-05  3079390.5    
     62000   1.0160281     -11.98659       0             -10.462853     -3.420307e-05   3094211.5    
     62100   1.012437      -11.996105      0             -10.477753      2.2128906e-05  3078491.8    
     62200   0.98845773    -12.003695      0             -10.521305     -4.6462051e-05  3064167.9    
     62300   1.0044445     -12.016868      0             -10.510503     -4.0737446e-05  3058029.8    
     62400   1.0031502     -12.01348       0             -10.509056     -4.1643016e-05  3048747.5    
     62500   1.0097936     -12.010868      0             -10.496481     -8.4359913e-05  3040433.5    
     62600   1.0149848     -12.071764      0             -10.549591      9.0380137e-05  3017152.5    
     62700   1.0014593     -12.03165       0             -10.529761      3.891681e-05   3014431.8    
     62800   0.97628798    -12.078247      0             -10.614108      2.9613815e-05  2999306.9    
     62900   0.99607868    -12.033269      0             -10.539449     -1.0054043e-05  3011192.1    
     63000   0.97620156    -12.047247      0             -10.583238     -0.0001476772   3007831.4    
     63100   0.9887438     -12.071423      0             -10.588604      2.6645347e-06  2982776.2    
     63200   0.98702243    -12.069449      0             -10.589212     -2.6980267e-05  2980690.6    
     63300   0.97438719    -12.056011      0             -10.594723      7.1763888e-05  2968367.9    
     63400   0.99191492    -12.039806      0             -10.552231     -0.0001426441   2984607.7    
     63500   1.0127098     -12.055959      0             -10.537198      9.3963822e-05  2968287.2    
     63600   1.0026613     -12.007655      0             -10.503964     -9.7400858e-05  2988621.6    
     63700   0.99071708    -12.022121      0             -10.536343      0.00011847491  2962021.9    
     63800   1.0069489     -12.018255      0             -10.508134      3.5746661e-05  2964462.6    
     63900   1.0051012     -12.046419      0             -10.539069     -0.00011205146  2960907.3    
     64000   1.0091757     -12.061321      0             -10.547861     -5.573708e-05   2952812.7    
     64100   0.9932068     -12.054016      0             -10.564504     -5.958322e-05   2959049.9    
     64200   0.98052419    -12.039705      0             -10.569213     -6.5187893e-05  2944161.1    
[...]
   1031900   0.98412068    -12.097232      0             -10.621346     -0.0002239296   1978654.9    
   1032000   0.99945232    -12.085652      0             -10.586773     -0.00020323049  1978319.4    
   1032100   1.0033895     -12.066338      0             -10.561555      7.611793e-05   1973378.9    
   1032200   1.0104939     -12.084691      0             -10.569253      2.086542e-05   1974605.9    
   1032300   0.98452396    -12.034516      0             -10.558026     -8.0997089e-05  1979589.4    
   1032400   1.0068723     -12.061274      0             -10.551268     -0.00020939273  1984783.6    
   1032500   1.0173551     -12.090265      0             -10.564538     -7.8713096e-05  1985061.7    
   1032600   0.99483483    -12.104179      0             -10.612225     -0.00011606227  1978817.1    
   1032700   0.97736059    -12.092984      0             -10.627236     -2.0635813e-05  1967612.6    
   1032800   1.0019728     -12.135531      0             -10.632872     -1.7640465e-05  1976423.2    
   1032900   0.98549543    -12.091687      0             -10.61374      -0.00012202206  1975981.9    
   1033000   0.99790129    -12.102009      0             -10.605456     -0.00012070777  1971527.8    
   1033100   0.99062662    -12.098642      0             -10.613         0.00010526826  1967412.1    
   1033200   1.0134335     -12.107726      0             -10.58788      -0.00014124652  1979025.2    
   1033300   0.99939148    -12.110845      0             -10.612058     -0.00010794714  1980894.9    
   1033400   0.99082932    -12.096453      0             -10.610507     -0.00021581157  1982267.6    
   1033500   0.99264315    -12.10174       0             -10.613073     -0.0001282899   1983569.4    
   1033600   1.0110099     -12.073484      0             -10.557273     -1.0890211e-05  1990465.9    
   1033700   1.0004076     -12.12814       0             -10.627828     -0.00012453878  1987788      
   1033800   0.9927135     -12.066683      0             -10.577911     -0.00014559302  1987417.8    
   1033900   1.013743      -12.102162      0             -10.581851     -7.7832002e-05  1983030      
   1034000   1.0213919     -12.078802      0             -10.54702      -9.3995219e-05  1979638      
   1034100   1.01161       -12.110026      0             -10.592914     -0.00019007456  1992537.2    
   1034200   0.99314966    -12.124336      0             -10.63491      -0.00017221783  1989826.1    
   1034300   0.98880922    -12.081816      0             -10.598899     -0.00011879797  1990660.4    
   1034400   0.99072818    -12.100019      0             -10.614224     -6.9209858e-05  1988236.6    
   1034500   0.97943198    -12.112892      0             -10.644038     -2.9932502e-05  1988044      
   1034600   0.97975544    -12.125682      0             -10.656343     -3.2758354e-05  1981626.7    
   1034700   0.98406504    -12.103434      0             -10.627632     -1.3000829e-05  1982797.5    
   1034800   1.02098       -12.134934      0             -10.60377      -0.00021966403  1990404.5    
   1034900   0.99426439    -12.132975      0             -10.641876     -4.5280611e-05  1980074.1    
   1035000   0.99989814    -12.11482       0             -10.615273      6.3389075e-05  1976834.9    
   1035100   1.0089352     -12.104964      0             -10.591864     -0.00020428579  1992988.8    
   1035200   1.0026771     -12.119501      0             -10.615786     -6.6632705e-05  1990621.2    
   1035300   1.0008514     -12.089742      0             -10.588765     -2.5351536e-05  1994145.4    
   1035400   1.0011407     -12.07483       0             -10.573419     -0.00011450737  1999101.6    
   1035500   0.99891239    -12.090383      0             -10.592314      0.00011118576  1990736.8    
   1035600   0.99159434    -12.096229      0             -10.609135     -9.6930295e-05  1999597      
   1035700   0.98518968    -12.111916      0             -10.634427     -7.2736171e-05  1994433.4    
   1035800   1.0012926     -12.066228      0             -10.564589     -6.3570548e-06  2003786.8    
   1035900   1.0014076     -12.087274      0             -10.585463     -4.2158548e-05  1995940.1    
   1036000   0.99001811    -12.089405      0             -10.604675     -0.000155747    1994432.9    
   1036100   1.0026111     -12.127671      0             -10.624055     -0.0002387625   1997495      
   1036200   0.98676808    -12.118111      0             -10.638255     -9.6426714e-05  1991145.1    
   1036300   0.99242754    -12.086004      0             -10.59766      -3.0169981e-05  1997422.6    
   1036400   0.99986302    -12.08067       0             -10.581175     -0.00014497988  1999968.9    
   1036500   0.99287749    -12.060441      0             -10.571423     -0.00010433431  2000606.6    
   1036600   0.99657039    -12.125912      0             -10.631355     -9.9081673e-05  1993883.5    
   1036700   1.0066161     -12.103286      0             -10.593664      9.1847715e-05  1989324.4    
   1036800   0.99631843    -12.125591      0             -10.631412     -6.1570701e-05  1993321.6    
   1036900   1.0012941     -12.116547      0             -10.614907      2.7602681e-05  1999436.6    
   1037000   0.9937892     -12.131835      0             -10.641449     -0.00013003496  2002889.4    
   1037100   0.98796502    -12.111133      0             -10.629482     -5.0457814e-05  2008363.6    
   1037200   0.98732559    -12.106424      0             -10.625732     -0.00016560061  2011595.6    
   1037300   0.9863934     -12.127343      0             -10.648049     -0.00012695657  2006949      
   1037400   0.99475057    -12.133978      0             -10.642151      2.2947944e-06  2005356.1    
   1037500   0.97762599    -12.085302      0             -10.619156     -8.4973328e-05  2005743.5    
   1037600   1.0102222     -12.093358      0             -10.578327     -0.00017288536  2018437.9    
   1037700   1.013157      -12.068496      0             -10.549065     -8.8375578e-05  2012587.1    
   1037800   0.99971088    -12.079476      0             -10.58021      -0.00027386402  2018306.9    
   1037900   0.99081924    -12.10292       0             -10.616988     -0.00012370926  2013937.5    
   1038000   1.0001547     -12.096039      0             -10.596107      3.6215522e-06  2006523.4    
   1038100   0.98245212    -12.074559      0             -10.601176     -0.00015013028  2009988.2    
   1038200   1.0062174     -12.111156      0             -10.602131      0.00016574945  2002962.6    
   1038300   1.0092816     -12.11502       0             -10.601401     -5.8044317e-05  2008130.2    
   1038400   1.0059512     -12.100539      0             -10.591914      3.839312e-05   2010503.8    
   1038500   0.99299947    -12.125331      0             -10.63613       3.650618e-05   2008452.1    
   1038600   0.9983499     -12.09622       0             -10.598994      1.0830885e-06  2013968      
   1038700   0.99494087    -12.086017      0             -10.593905     -2.4054804e-05  2009848.9    
   1038800   1.0092835     -12.117478      0             -10.603855     -2.3455436e-05  2008540.6    
   1038900   0.99042167    -12.133306      0             -10.647971      7.1261505e-05  1991791.8    
   1039000   1.0023437     -12.111379      0             -10.608164      0.00017004995  1997338.7    
   1039100   0.97753122    -12.11677       0             -10.650767     -0.00013841658  2004947      
   1039200   0.99168664    -12.091471      0             -10.604238     -7.3539208e-05  1999691.2    
   1039300   1.0008735     -12.097208      0             -10.596198      2.624376e-05   1996482.8    
   1039400   0.99009127    -12.076017      0             -10.591177     -4.9683464e-05  1999290.7    
   1039500   0.99096328    -12.061534      0             -10.575386     -7.3328577e-05  1999478.4    
   1039600   1.0025989     -12.040903      0             -10.537305     -0.00025208531  2009786.2    
   1039700   0.99843029    -12.055678      0             -10.558332     -0.00020307936  2004085.6    
   1039800   1.0037062     -12.087205      0             -10.581947     -4.1770777e-05  1996362.2    
   1039900   0.99350533    -12.126912      0             -10.636952     -0.00016013571  1997003.9    
   1040000   1.0093095     -12.092713      0             -10.579051     -0.00010853432  2001979.9    
   1040100   1.0127854     -12.083886      0             -10.565012     -0.00021251274  2003138      
   1040200   0.99411231    -12.053131      0             -10.562261      5.1779947e-05  1995350.1    
   1040300   0.98985144    -12.093192      0             -10.608712     -0.00011680069  1994315      
   1040400   0.98838249    -12.084635      0             -10.602357     -0.00010654982  1997704.1    
   1040500   0.98888126    -12.138562      0             -10.655537     -7.673123e-05   1994175      
   1040600   0.98982599    -12.074874      0             -10.590432     -2.6542935e-07  1993981.1    
   1040700   0.99007237    -12.090111      0             -10.605299     -8.880537e-05   1991425.3    
   1040800   0.98872462    -12.131185      0             -10.648395     -0.00017540388  1987097.6    
   1040900   1.0084435     -12.110212      0             -10.597849     -1.9588982e-05  1975876.7    
   1041000   0.99259007    -12.095892      0             -10.607304     -5.925362e-05   1985897.4    
   1041100   0.98510984    -12.096807      0             -10.619438     -5.1815554e-06  1985053.2    
   1041200   1.0123762     -12.128222      0             -10.609962     -8.8421487e-05  1981352.9    
   1041300   1.0029968     -12.091999      0             -10.587805     -0.00016780111  1984167.2    
   1041400   0.99409162    -12.133368      0             -10.642529     -0.00022073159  1985013.6    
   1041500   1.0006238     -12.09796       0             -10.597325     -0.00015647339  1983101.7    
   1041600   1.0122328     -12.087178      0             -10.569133     -0.00014052577  1987107.8    
   1041700   0.99905475    -12.142108      0             -10.643826     -7.8352921e-05  1985457.2    
   1041800   0.9864731     -12.116784      0             -10.63737      -0.0001519213   1981764.8    
   1041900   0.98500647    -12.094991      0             -10.617777     -0.00015379558  1987439.8    
   1042000   0.9889339     -12.10822       0             -10.625116     -2.0645633e-05  1981647.2    
   1042100   0.99025057    -12.079242      0             -10.594164     -0.00028005471  1994919.3    
   1042200   0.99147558    -12.071575      0             -10.584659     -7.3124358e-05  1990931.6    
   1042300   1.0013666     -12.061408      0             -10.559659     -2.9679794e-05  1995331      
   1042400   0.99835021    -12.081313      0             -10.584087     -9.0574532e-05  1993323      
   1042500   1.0036205     -12.105034      0             -10.599905     -1.6924686e-05  1989978      
   1042600   1.009649      -12.080264      0             -10.566093      6.045854e-05   1984872.8    
   1042700   0.99938248    -12.115212      0             -10.616438      3.3066486e-05  1985142.2    
   1042800   1.0069686     -12.124638      0             -10.614488     -0.0001049578   1989899.2    
   1042900   0.98551196    -12.118493      0             -10.640521     -9.7485176e-05  1993283      
   1043000   0.98773235    -12.140015      0             -10.658713     -0.00010116212  1995553.2    
   1043100   1.0039948     -12.154203      0             -10.648512     -3.3354435e-05  1989415.3    
   1043200   1.0053157     -12.163664      0             -10.655993      9.7051942e-05  1992551.2    
   1043300   1.0055382     -12.125909      0             -10.617903     -4.6695186e-05  1997770.5    
   1043400   0.9864397     -12.084016      0             -10.604653     -2.0132527e-05  2001030.6    
   1043500   1.005333      -12.114394      0             -10.606696     -0.00010984466  2000192.4    
   1043600   1.0010059     -12.108697      0             -10.607489     -6.0874752e-05  2006126.3    
   1043700   1.0219942     -12.090025      0             -10.55734      -3.4463722e-05  2006442.7    
   1043800   1.015179      -12.077865      0             -10.555402      5.9873884e-06  2011022.4    
   1043900   1.0108918     -12.127084      0             -10.61105      -7.6314992e-05  2008531.3    
   1044000   1.0030951     -12.088962      0             -10.584621     -7.4851701e-05  2016010.7    
   1044100   1.0044964     -12.081505      0             -10.575062      8.3175466e-06  2003888.9    
   1044200   1.0168281     -12.112171      0             -10.587234     -3.2407191e-05  1998010.7    
   1044300   1.0177969     -12.091666      0             -10.565276     -0.00030802856  2011178.9    
   1044400   1.0202795     -12.054667      0             -10.524554      1.6104451e-05  2000937.2    
   1044500   1.0041525     -12.082159      0             -10.576231     -7.413584e-05   2002702.9    
   1044600   1.0078368     -12.091598      0             -10.580145     -0.00012727963  1998053      
   1044700   1.0046826     -12.084172      0             -10.57745      -6.5346707e-06  1990755.7    
   1044800   1.0017562     -12.081977      0             -10.579643     -1.7300007e-05  1993934.8    
   1044900   0.98753595    -12.070142      0             -10.589134     -0.00010003618  1993772.1    
   1045000   1.0037471     -12.109973      0             -10.604654     -0.00021868092  1999773.2    
   1045100   1.0020611     -12.080219      0             -10.577428     -0.00014310262  1990914.3    
   1045200   0.98747546    -12.077364      0             -10.596447     -0.00018493136  1993497.2    
   1045300   1.0142387     -12.1195        0             -10.598446      5.5609213e-05  1979623.6    
   1045400   0.98912716    -12.071329      0             -10.587935      1.8938426e-06  1986506.2    
   1045500   1.0014506     -12.110848      0             -10.608973     -0.00011001576  1982780.8    
   1045600   1.0127872     -12.114043      0             -10.595166      8.4613913e-06  1982064.5    
   1045700   1.0014374     -12.107797      0             -10.605942     -7.2755704e-05  1980461.6    
   1045800   1.0005218     -12.109746      0             -10.609263      0.00011771123  1975040.7    
   1045900   0.99143413    -12.119647      0             -10.632794     -0.00011414532  1983150.9    
   1046000   1.0058149     -12.107534      0             -10.599114     -7.9399e-05     1986518.7    
   1046100   0.99697472    -12.097022      0             -10.601859     -0.00016934595  1986112.4    
   1046200   1.0027607     -12.114343      0             -10.610503     -0.00018125327  1983513.8    
   1046300   1.0007601     -12.126697      0             -10.625857     -0.00028632364  1987782.7    
   1046400   1.0124045     -12.115598      0             -10.597295     -7.8074614e-05  1985884.3    
   1046500   0.99645156    -12.128437      0             -10.634059     -0.00028213108  1985986.5    
   1046600   1.0097645     -12.115496      0             -10.601153     -0.00015610022  1981627.1    
   1046700   1.0124391     -12.101959      0             -10.583604     -0.0001160245   1989841.6    
   1046800   1.0086045     -12.112268      0             -10.599664     -0.00014271358  1982462.2    
   1046900   1.0214285     -12.103338      0             -10.571502      3.2500854e-05  1975198      
   1047000   1.0015963     -12.097107      0             -10.595013     -0.00036153472  1997155.5    
   1047100   1.0161684     -12.095947      0             -10.571999      1.0561992e-05  1987646.1    
   1047200   1.0167874     -12.087711      0             -10.562835     -0.00024319857  1994823.1    
   1047300   0.99071978    -12.063709      0             -10.577926     -0.00016334648  1995797.8    
   1047400   1.0113231     -12.096904      0             -10.580223     -0.00014104941  1987381      
   1047500   1.0266569     -12.088004      0             -10.548327     -9.9227566e-05  1993196.7    
   1047600   0.99771941    -12.087245      0             -10.590965     -9.3604475e-05  1985269      
   1047700   0.99027373    -12.093808      0             -10.608695     -0.00033951481  1986799.5    
   1047800   0.98701183    -12.096978      0             -10.616757     -0.00016297012  1984601      
   1047900   0.99793764    -12.096874      0             -10.600267     -0.00010224846  1982915.3    
   1048000   1.0084132     -12.111096      0             -10.598778     -0.0001028263   1987245.6    
   1048100   1.013431      -12.080914      0             -10.561071     -8.4146556e-05  1987818.1    
   1048200   1.0062803     -12.058978      0             -10.549859     -5.6031843e-05  1991070.4    
   1048300   1.0030937     -12.086066      0             -10.581726     -0.00017967557  1983980.6    
   1048400   0.99552933    -12.077339      0             -10.584344     -0.00027090673  1990849.6    
   1048500   0.99914366    -12.102039      0             -10.603623     -0.00011017314  1978750.5    
   1048600   1.0088816     -12.095818      0             -10.582798     -0.00014270068  1985339.6    
   1048700   1.0101738     -12.07752       0             -10.562562      2.0900425e-05  1981084.4    
   1048800   1.0080637     -12.085645      0             -10.573852     -0.00020450975  1988513.1    
   1048900   1.024135      -12.0569        0             -10.521005      6.8692995e-05  1987754.2    
   1049000   1.0089502     -12.02089       0             -10.507767     -2.0025686e-05  1987747.1    
   1049100   1.0192996     -12.103547      0             -10.574903     -0.00020970611  1990220.1    
   1049200   0.99015295    -12.091083      0             -10.606151      1.4765935e-05  1976807.2    
   1049300   0.99724281    -12.103565      0             -10.608        -0.00013735542  1984845.1    
   1049400   1.0147644     -12.092216      0             -10.570374     -6.4805934e-08  1986172.4    
   1049500   1.0057676     -12.112814      0             -10.604464     -2.4669969e-05  1987550.3    
   1049600   0.99588885    -12.118247      0             -10.624712     -0.00015759722  1987976.4    
   1049700   1.0051271     -12.11841       0             -10.611021     -0.00022282121  1996948.6    
   1049800   1.0014359     -12.115015      0             -10.613162      3.6152354e-05  1987791.8    
   1049900   1.0066506     -12.126387      0             -10.616713     -0.00011760709  1989554      
   1050000   0.9916495     -12.122493      0             -10.635316     -0.00014955385  1991372      
Loop time of 61387 on 1 procs for 1000000 steps with 5000 atoms

Performance: 14074.644 tau/day, 16.290 timesteps/s, 81.450 katom-step/s
6.2% CPU use with 1 MPI tasks x no OpenMP threads

MPI task timing breakdown:
Section |  min time  |  avg time  |  max time  |%varavg| %total
---------------------------------------------------------------
Pair    | 38264      | 38264      | 38264      |   0.0 | 62.33
Bond    | 0.030003   | 0.030003   | 0.030003   |   0.0 |  0.00
Neigh   | 11768      | 11768      | 11768      |   0.0 | 19.17
Comm    | 21.493     | 21.493     | 21.493     |   0.0 |  0.04
Output  | 3526       | 3526       | 3526       |   0.0 |  5.74
Modify  | 7797.7     | 7797.7     | 7797.7     |   0.0 | 12.70
Other   |            | 10.24      |            |       |  0.02

Nlocal:           5000 ave        5000 max        5000 min
Histogram: 1 0 0 0 0 0 0 0 0 0
Nghost:            585 ave         585 max         585 min
Histogram: 1 0 0 0 0 0 0 0 0 0
Neighs:          75817 ave       75817 max       75817 min
Histogram: 1 0 0 0 0 0 0 0 0 0

Total # of neighbors = 75817
Ave neighs/atom = 15.1634
Ave special neighs/atom = 0
Neighbor list builds = 285562
Dangerous builds = 132
write_restart lmpout_restart_03_t_middle.dat
System init for write_restart ...
Generated 0 of 0 mixed pair_coeff terms from geometric mixing rule
Total wall time: 19:23:45
